<?xml version="1.0" encoding="UTF-8"?>

<!-- generated on mar. 11 févr. 2014 19:21:09 CET by SUMO gui Version 0.19.0
<?xml version="1.0" encoding="UTF-8"?>

<configuration xmlns:xsi="http://www.w3.org/2001/XMLSchema-instance" xsi:noNamespaceSchemaLocation="http://sumo-sim.org/xsd/sumo-gui.exeConfiguration.xsd">

    <input>
        <net-file value="data/RondPoint.net.xml"/>
        <route-files value="data/RondPoint.rou.xml,data/RondPointBus.rou.xml"/>
        <additional-files value="data/RondPoint.det.xml"/>
    </input>

    <output>
        <tripinfo-output value="data/RondPointtripinfo.out.xml"/>
        <save-state.prefix value="data/state"/>
    </output>

    <time>
        <begin value="0"/>
    </time>

    <processing>
        <time-to-teleport value="400"/>
        <lanechange.allow-swap value="true"/>
    </processing>

    <report>
        <no-step-log value="true"/>
    </report>

    <traci_server>
        <remote-port value="8815"/>
    </traci_server>

</configuration>
-->

<tripinfos>
    <tripinfo id="VehicleFlowNorthToNorth.0" depart="0.00" departLane="28925528_1" departPos="4.10" departSpeed="0.00" departDelay="0.00" arrival="18.00" arrivalLane="28925528_1" arrivalPos="108.73" arrivalSpeed="12.24" duration="18.00" routeLength="104.63" waitSteps="0" rerouteNo="0" devices="tripinfo_VehicleFlowNorthToNorth.0" vType="Vehicle" vaporized=""/>
    <tripinfo id="VehicleFlowWestToWest.0" depart="5.00" departLane="229259796_1" departPos="4.10" departSpeed="0.00" departDelay="5.00" arrival="31.00" arrivalLane="229259796_1" arrivalPos="201.18" arrivalSpeed="13.80" duration="26.00" routeLength="197.08" waitSteps="0" rerouteNo="0" devices="tripinfo_VehicleFlowWestToWest.0" vType="Vehicle" vaporized=""/>
    <tripinfo id="VehicleFlowEastToNorth.0" depart="0.00" departLane="-1365_0" departPos="4.10" departSpeed="0.00" departDelay="0.00" arrival="47.00" arrivalLane="105490284_0" arrivalPos="108.94" arrivalSpeed="13.69" duration="47.00" routeLength="461.56" waitSteps="0" rerouteNo="0" devices="tripinfo_VehicleFlowEastToNorth.0" vType="Vehicle" vaporized=""/>
    <tripinfo id="VehicleFlowSouthToEast.0" depart="0.00" departLane="239331354_0" departPos="4.10" departSpeed="0.00" departDelay="0.00" arrival="48.00" arrivalLane="105490279_0" arrivalPos="352.04" arrivalSpeed="13.69" duration="48.00" routeLength="491.12" waitSteps="0" rerouteNo="0" devices="tripinfo_VehicleFlowSouthToEast.0" vType="Vehicle" vaporized=""/>
    <tripinfo id="VehicleFlowWestToSouth.0" depart="4.00" departLane="229259796_0" departPos="4.10" departSpeed="0.00" departDelay="4.00" arrival="51.00" arrivalLane="239331353_0" arrivalPos="131.82" arrivalSpeed="13.93" duration="47.00" routeLength="336.88" waitSteps="0" rerouteNo="0" devices="tripinfo_VehicleFlowWestToSouth.0" vType="Vehicle" vaporized=""/>
    <tripinfo id="VehicleFlowEastToWest.0" depart="0.00" departLane="-1365_2" departPos="4.10" departSpeed="0.00" departDelay="0.00" arrival="59.00" arrivalLane="105490271_0" arrivalPos="212.97" arrivalSpeed="13.57" duration="59.00" routeLength="594.04" waitSteps="0" rerouteNo="0" devices="tripinfo_VehicleFlowEastToWest.0" vType="Vehicle" vaporized=""/>
    <tripinfo id="VehicleFlowEastToWest.1" depart="5.00" departLane="-1365_0" departPos="4.10" departSpeed="0.00" departDelay="1.42" arrival="62.00" arrivalLane="105490271_0" arrivalPos="212.97" arrivalSpeed="13.65" duration="57.00" routeLength="594.04" waitSteps="0" rerouteNo="0" devices="tripinfo_VehicleFlowEastToWest.1" vType="Vehicle" vaporized=""/>
    <tripinfo id="VehicleFlowEastToWest.2" depart="7.00" departLane="-1365_1" departPos="4.10" departSpeed="0.00" departDelay="-0.17" arrival="65.00" arrivalLane="105490271_0" arrivalPos="212.97" arrivalSpeed="13.51" duration="58.00" routeLength="594.04" waitSteps="0" rerouteNo="0" devices="tripinfo_VehicleFlowEastToWest.2" vType="Vehicle" vaporized=""/>
    <tripinfo id="VehicleFlowEastToWest.3" depart="10.00" departLane="-1365_2" departPos="4.10" departSpeed="0.00" departDelay="-0.76" arrival="67.00" arrivalLane="105490271_0" arrivalPos="212.97" arrivalSpeed="13.50" duration="57.00" routeLength="594.04" waitSteps="0" rerouteNo="0" devices="tripinfo_VehicleFlowEastToWest.3" vType="Vehicle" vaporized=""/>
    <tripinfo id="VehicleFlowEastToSouth.0" depart="0.00" departLane="-1365_1" departPos="4.10" departSpeed="0.00" departDelay="0.00" arrival="75.00" arrivalLane="239331353_0" arrivalPos="131.82" arrivalSpeed="14.27" duration="75.00" routeLength="530.61" waitSteps="5" rerouteNo="0" devices="tripinfo_VehicleFlowEastToSouth.0" vType="Vehicle" vaporized=""/>
    <tripinfo id="VehicleFlowSouthToNorth.0" depart="0.00" departLane="239331354_1" departPos="4.10" departSpeed="0.00" departDelay="0.00" arrival="75.00" arrivalLane="105490284_0" arrivalPos="108.94" arrivalSpeed="13.88" duration="75.00" routeLength="277.38" waitSteps="25" rerouteNo="0" devices="tripinfo_VehicleFlowSouthToNorth.0" vType="Vehicle" vaporized=""/>
    <tripinfo id="VehicleFlowWestToEast.0" depart="0.00" departLane="229259796_0" departPos="4.10" departSpeed="0.00" departDelay="0.00" arrival="76.00" arrivalLane="105490279_0" arrivalPos="352.04" arrivalSpeed="13.83" duration="76.00" routeLength="576.94" waitSteps="5" rerouteNo="0" devices="tripinfo_VehicleFlowWestToEast.0" vType="Vehicle" vaporized=""/>
    <tripinfo id="VehicleFlowWestToNorth.0" depart="0.00" departLane="229259796_1" departPos="4.10" departSpeed="0.00" departDelay="0.00" arrival="77.00" arrivalLane="105490284_0" arrivalPos="108.94" arrivalSpeed="13.71" duration="77.00" routeLength="363.20" waitSteps="8" rerouteNo="0" devices="tripinfo_VehicleFlowWestToNorth.0" vType="Vehicle" vaporized=""/>
    <tripinfo id="VehicleFlowWestToEast.1" depart="15.00" departLane="229259796_0" departPos="4.10" departSpeed="0.00" departDelay="0.00" arrival="78.00" arrivalLane="105490279_0" arrivalPos="352.04" arrivalSpeed="13.50" duration="63.00" routeLength="576.94" waitSteps="0" rerouteNo="0" devices="tripinfo_VehicleFlowWestToEast.1" vType="Vehicle" vaporized=""/>
    <tripinfo id="VehicleFlowNorthToWest.0" depart="5.00" departLane="28925528_1" departPos="4.10" departSpeed="0.00" departDelay="5.00" arrival="98.00" arrivalLane="105490271_0" arrivalPos="212.97" arrivalSpeed="13.80" duration="93.00" routeLength="335.44" waitSteps="40" rerouteNo="0" devices="tripinfo_VehicleFlowNorthToWest.0" vType="Vehicle" vaporized=""/>
    <tripinfo id="VehicleFlowNorthToWest.1" depart="19.00" departLane="28925528_0" departPos="4.10" departSpeed="0.00" departDelay="-0.15" arrival="101.00" arrivalLane="105490271_0" arrivalPos="212.97" arrivalSpeed="13.51" duration="82.00" routeLength="335.44" waitSteps="30" rerouteNo="0" devices="tripinfo_VehicleFlowNorthToWest.1" vType="Vehicle" vaporized=""/>
    <tripinfo id="VehicleFlowNorthToWest.2" depart="38.00" departLane="28925528_0" departPos="4.10" departSpeed="0.00" departDelay="-0.30" arrival="102.00" arrivalLane="105490271_0" arrivalPos="212.97" arrivalSpeed="13.86" duration="64.00" routeLength="335.44" waitSteps="13" rerouteNo="0" devices="tripinfo_VehicleFlowNorthToWest.2" vType="Vehicle" vaporized=""/>
    <tripinfo id="BusFlowSouthNorth.0" depart="12.00" departLane="239331354_0" departPos="12.10" departSpeed="0.00" departDelay="12.00" arrival="104.00" arrivalLane="105490284_0" arrivalPos="108.94" arrivalSpeed="13.70" duration="92.00" routeLength="269.38" waitSteps="40" rerouteNo="0" devices="tripinfo_BusFlowSouthNorth.0" vType="Bus" vaporized=""/>
    <tripinfo id="VehicleFlowNorthToWest.3" depart="57.00" departLane="28925528_0" departPos="4.10" departSpeed="0.00" departDelay="-0.44" arrival="105.00" arrivalLane="105490271_0" arrivalPos="212.97" arrivalSpeed="13.67" duration="48.00" routeLength="335.44" waitSteps="0" rerouteNo="0" devices="tripinfo_VehicleFlowNorthToWest.3" vType="Vehicle" vaporized=""/>
    <tripinfo id="BusFlowEastWest.0" depart="0.00" departLane="-1277_0" departPos="12.10" departSpeed="0.00" departDelay="0.00" arrival="116.00" arrivalLane="240120122_0" arrivalPos="328.53" arrivalSpeed="13.63" duration="116.00" routeLength="684.72" waitSteps="0" rerouteNo="0" devices="tripinfo_BusFlowEastWest.0" vType="Bus" vaporized=""/>
    <tripinfo id="VehicleFlowNorthToSouth.0" depart="5.00" departLane="28925528_0" departPos="4.10" departSpeed="0.00" departDelay="5.00" arrival="127.00" arrivalLane="239331353_0" arrivalPos="131.82" arrivalSpeed="14.37" duration="122.00" routeLength="272.01" waitSteps="57" rerouteNo="0" devices="tripinfo_VehicleFlowNorthToSouth.0" vType="Vehicle" vaporized=""/>
    <tripinfo id="BusFlowNorthSouth.0" depart="13.00" departLane="28925528_0" departPos="12.10" departSpeed="0.00" departDelay="13.00" arrival="129.00" arrivalLane="239331353_0" arrivalPos="131.82" arrivalSpeed="15.13" duration="116.00" routeLength="264.01" waitSteps="54" rerouteNo="0" devices="tripinfo_BusFlowNorthSouth.0" vType="Bus" vaporized=""/>
    <tripinfo id="VehicleFlowSouthToWest.0" depart="5.00" departLane="239331354_0" departPos="4.10" departSpeed="0.00" departDelay="5.00" arrival="134.00" arrivalLane="105490271_1" arrivalPos="212.97" arrivalSpeed="13.66" duration="129.00" routeLength="409.86" waitSteps="48" rerouteNo="0" devices="tripinfo_VehicleFlowSouthToWest.0" vType="Vehicle" vaporized=""/>
    <tripinfo id="VehicleFlowEastToWest.4" depart="14.00" departLane="-1365_0" departPos="4.10" departSpeed="0.00" departDelay="-0.34" arrival="140.00" arrivalLane="105490271_0" arrivalPos="212.97" arrivalSpeed="13.71" duration="126.00" routeLength="594.04" waitSteps="54" rerouteNo="0" devices="tripinfo_VehicleFlowEastToWest.4" vType="Vehicle" vaporized=""/>
    <tripinfo id="VehicleFlowEastToWest.9" depart="32.00" departLane="-1365_2" departPos="4.10" departSpeed="0.00" departDelay="-0.27" arrival="142.00" arrivalLane="105490271_1" arrivalPos="212.97" arrivalSpeed="13.82" duration="110.00" routeLength="594.04" waitSteps="38" rerouteNo="0" devices="tripinfo_VehicleFlowEastToWest.9" vType="Vehicle" vaporized=""/>
    <tripinfo id="VehicleFlowEastToWest.6" depart="21.00" departLane="-1365_2" departPos="4.10" departSpeed="0.00" departDelay="-0.51" arrival="148.00" arrivalLane="105490271_0" arrivalPos="212.97" arrivalSpeed="13.86" duration="127.00" routeLength="594.04" waitSteps="46" rerouteNo="0" devices="tripinfo_VehicleFlowEastToWest.6" vType="Vehicle" vaporized=""/>
    <tripinfo id="VehicleFlowWestToSouth.1" depart="45.00" departLane="229259796_0" departPos="4.10" departSpeed="0.00" departDelay="0.00" arrival="148.00" arrivalLane="239331353_0" arrivalPos="131.82" arrivalSpeed="14.28" duration="103.00" routeLength="336.88" waitSteps="44" rerouteNo="0" devices="tripinfo_VehicleFlowWestToSouth.1" vType="Vehicle" vaporized=""/>
    <tripinfo id="VehicleFlowEastToWest.12" depart="43.00" departLane="-1365_1" departPos="4.10" departSpeed="0.00" departDelay="-0.02" arrival="150.00" arrivalLane="105490271_0" arrivalPos="212.97" arrivalSpeed="13.52" duration="107.00" routeLength="594.04" waitSteps="29" rerouteNo="0" devices="tripinfo_VehicleFlowEastToWest.12" vType="Vehicle" vaporized=""/>
    <tripinfo id="VehicleFlowWestToEast.2" depart="30.00" departLane="229259796_0" departPos="4.10" departSpeed="0.00" departDelay="0.00" arrival="151.00" arrivalLane="105490279_0" arrivalPos="352.04" arrivalSpeed="13.57" duration="121.00" routeLength="576.94" waitSteps="37" rerouteNo="0" devices="tripinfo_VehicleFlowWestToEast.2" vType="Vehicle" vaporized=""/>
    <tripinfo id="VehicleFlowNorthToEast.0" depart="0.00" departLane="28925528_0" departPos="4.10" departSpeed="0.00" departDelay="0.00" arrival="153.00" arrivalLane="105490279_0" arrivalPos="352.04" arrivalSpeed="13.60" duration="153.00" routeLength="512.07" waitSteps="59" rerouteNo="0" devices="tripinfo_VehicleFlowNorthToEast.0" vType="Vehicle" vaporized=""/>
    <tripinfo id="VehicleFlowNorthToWest.4" depart="76.00" departLane="28925528_1" departPos="4.10" departSpeed="0.00" departDelay="-0.59" arrival="166.00" arrivalLane="105490271_0" arrivalPos="212.97" arrivalSpeed="13.81" duration="90.00" routeLength="335.44" waitSteps="40" rerouteNo="0" devices="tripinfo_VehicleFlowNorthToWest.4" vType="Vehicle" vaporized=""/>
    <tripinfo id="VehicleFlowNorthToWest.6" depart="114.00" departLane="28925528_1" departPos="4.10" departSpeed="0.00" departDelay="-0.89" arrival="168.00" arrivalLane="105490271_1" arrivalPos="212.97" arrivalSpeed="13.82" duration="54.00" routeLength="335.44" waitSteps="4" rerouteNo="0" devices="tripinfo_VehicleFlowNorthToWest.6" vType="Vehicle" vaporized=""/>
    <tripinfo id="VehicleFlowNorthToWest.5" depart="95.00" departLane="28925528_0" departPos="4.10" departSpeed="0.00" departDelay="-0.74" arrival="169.00" arrivalLane="105490271_0" arrivalPos="212.97" arrivalSpeed="13.63" duration="74.00" routeLength="335.44" waitSteps="22" rerouteNo="0" devices="tripinfo_VehicleFlowNorthToWest.5" vType="Vehicle" vaporized=""/>
    <tripinfo id="VehicleFlowNorthToWest.7" depart="134.00" departLane="28925528_0" departPos="4.10" departSpeed="0.00" departDelay="-0.04" arrival="171.00" arrivalLane="105490271_0" arrivalPos="212.97" arrivalSpeed="13.65" duration="37.00" routeLength="335.44" waitSteps="0" rerouteNo="0" devices="tripinfo_VehicleFlowNorthToWest.7" vType="Vehicle" vaporized=""/>
    <tripinfo id="VehicleFlowEastToSouth.1" depart="45.00" departLane="-1365_2" departPos="4.10" departSpeed="0.00" departDelay="0.00" arrival="177.00" arrivalLane="239331353_0" arrivalPos="131.82" arrivalSpeed="13.35" duration="132.00" routeLength="530.61" waitSteps="41" rerouteNo="0" devices="tripinfo_VehicleFlowEastToSouth.1" vType="Vehicle" vaporized=""/>
    <tripinfo id="VehicleFlowNorthToSouth.1" depart="81.00" departLane="28925528_0" departPos="4.10" departSpeed="0.00" departDelay="-0.82" arrival="179.00" arrivalLane="239331353_0" arrivalPos="131.82" arrivalSpeed="14.14" duration="98.00" routeLength="272.01" waitSteps="39" rerouteNo="0" devices="tripinfo_VehicleFlowNorthToSouth.1" vType="Vehicle" vaporized=""/>
    <tripinfo id="VehicleFlowEastToWest.14" depart="50.00" departLane="-1365_2" departPos="4.10" departSpeed="0.00" departDelay="-0.19" arrival="191.00" arrivalLane="105490271_1" arrivalPos="212.97" arrivalSpeed="13.87" duration="141.00" routeLength="594.04" waitSteps="49" rerouteNo="0" devices="tripinfo_VehicleFlowEastToWest.14" vType="Vehicle" vaporized=""/>
    <tripinfo id="VehicleFlowEastToWest.10" depart="35.00" departLane="-1365_0" departPos="4.10" departSpeed="0.00" departDelay="-0.85" arrival="192.00" arrivalLane="105490271_0" arrivalPos="212.97" arrivalSpeed="13.89" duration="157.00" routeLength="594.04" waitSteps="60" rerouteNo="0" devices="tripinfo_VehicleFlowEastToWest.10" vType="Vehicle" vaporized=""/>
    <tripinfo id="VehicleFlowEastToWest.7" depart="25.00" departLane="-1365_0" departPos="4.10" departSpeed="0.00" departDelay="-0.09" arrival="194.00" arrivalLane="105490271_0" arrivalPos="212.97" arrivalSpeed="13.74" duration="169.00" routeLength="594.04" waitSteps="75" rerouteNo="0" devices="tripinfo_VehicleFlowEastToWest.7" vType="Vehicle" vaporized=""/>
    <tripinfo id="VehicleFlowEastToWest.17" depart="60.00" departLane="-1365_2" departPos="4.10" departSpeed="0.00" departDelay="-0.95" arrival="196.00" arrivalLane="105490271_0" arrivalPos="212.97" arrivalSpeed="13.84" duration="136.00" routeLength="594.04" waitSteps="37" rerouteNo="0" devices="tripinfo_VehicleFlowEastToWest.17" vType="Vehicle" vaporized=""/>
    <tripinfo id="VehicleFlowEastToWest.23" depart="82.00" departLane="-1365_1" departPos="4.10" departSpeed="0.00" departDelay="-0.45" arrival="196.00" arrivalLane="105490271_1" arrivalPos="212.97" arrivalSpeed="13.77" duration="114.00" routeLength="594.04" waitSteps="19" rerouteNo="0" devices="tripinfo_VehicleFlowEastToWest.23" vType="Vehicle" vaporized=""/>
    <tripinfo id="VehicleFlowEastToWest.5" depart="17.00" departLane="-1365_1" departPos="4.10" departSpeed="0.00" departDelay="-0.93" arrival="199.00" arrivalLane="105490271_0" arrivalPos="212.97" arrivalSpeed="13.51" duration="182.00" routeLength="594.04" waitSteps="80" rerouteNo="0" devices="tripinfo_VehicleFlowEastToWest.5" vType="Vehicle" vaporized=""/>
    <tripinfo id="VehicleFlowEastToWest.30" depart="107.00" departLane="-1365_1" departPos="4.10" departSpeed="0.00" departDelay="-0.55" arrival="206.00" arrivalLane="105490271_0" arrivalPos="212.97" arrivalSpeed="13.87" duration="99.00" routeLength="594.04" waitSteps="16" rerouteNo="0" devices="tripinfo_VehicleFlowEastToWest.30" vType="Vehicle" vaporized=""/>
    <tripinfo id="VehicleFlowEastToWest.15" depart="53.00" departLane="-1365_0" departPos="4.10" departSpeed="0.00" departDelay="-0.77" arrival="207.00" arrivalLane="105490271_0" arrivalPos="212.97" arrivalSpeed="13.69" duration="154.00" routeLength="594.04" waitSteps="54" rerouteNo="0" devices="tripinfo_VehicleFlowEastToWest.15" vType="Vehicle" vaporized=""/>
    <tripinfo id="VehicleFlowEastToWest.31" depart="111.00" departLane="-1365_2" departPos="4.10" departSpeed="0.00" departDelay="-0.14" arrival="209.00" arrivalLane="105490271_0" arrivalPos="212.97" arrivalSpeed="13.73" duration="98.00" routeLength="594.04" waitSteps="13" rerouteNo="0" devices="tripinfo_VehicleFlowEastToWest.31" vType="Vehicle" vaporized=""/>
    <tripinfo id="VehicleFlowEastToWest.28" depart="100.00" departLane="-1365_1" departPos="4.10" departSpeed="0.00" departDelay="-0.38" arrival="210.00" arrivalLane="105490271_1" arrivalPos="212.97" arrivalSpeed="13.73" duration="110.00" routeLength="594.04" waitSteps="24" rerouteNo="0" devices="tripinfo_VehicleFlowEastToWest.28" vType="Vehicle" vaporized=""/>
    <tripinfo id="VehicleFlowEastToWest.8" depart="28.00" departLane="-1365_1" departPos="4.10" departSpeed="0.00" departDelay="-0.68" arrival="212.00" arrivalLane="105490271_1" arrivalPos="212.97" arrivalSpeed="13.78" duration="184.00" routeLength="594.04" waitSteps="68" rerouteNo="0" devices="tripinfo_VehicleFlowEastToWest.8" vType="Vehicle" vaporized=""/>
    <tripinfo id="VehicleFlowWestToNorth.1" depart="95.00" departLane="229259796_1" departPos="4.10" departSpeed="0.00" departDelay="5.00" arrival="212.00" arrivalLane="105490284_0" arrivalPos="108.94" arrivalSpeed="13.65" duration="117.00" routeLength="363.20" waitSteps="52" rerouteNo="0" devices="tripinfo_VehicleFlowWestToNorth.1" vType="Vehicle" vaporized=""/>
    <tripinfo id="VehicleFlowEastToWest.32" depart="116.00" departLane="-1365_2" departPos="4.10" departSpeed="0.00" departDelay="1.28" arrival="214.00" arrivalLane="105490271_0" arrivalPos="212.97" arrivalSpeed="13.55" duration="98.00" routeLength="594.04" waitSteps="10" rerouteNo="0" devices="tripinfo_VehicleFlowEastToWest.32" vType="Vehicle" vaporized=""/>
    <tripinfo id="VehicleFlowEastToWest.34" depart="121.00" departLane="-1365_2" departPos="4.10" departSpeed="0.00" departDelay="-0.89" arrival="215.00" arrivalLane="105490271_1" arrivalPos="212.97" arrivalSpeed="13.49" duration="94.00" routeLength="594.04" waitSteps="7" rerouteNo="0" devices="tripinfo_VehicleFlowEastToWest.34" vType="Vehicle" vaporized=""/>
    <tripinfo id="VehicleFlowEastToWest.11" depart="40.00" departLane="-1365_0" departPos="4.10" departSpeed="0.00" departDelay="0.56" arrival="219.00" arrivalLane="105490271_0" arrivalPos="212.97" arrivalSpeed="13.81" duration="179.00" routeLength="594.04" waitSteps="64" rerouteNo="0" devices="tripinfo_VehicleFlowEastToWest.11" vType="Vehicle" vaporized=""/>
    <tripinfo id="VehicleFlowEastToWest.18" depart="64.00" departLane="-1365_0" departPos="4.10" departSpeed="0.00" departDelay="-0.53" arrival="222.00" arrivalLane="105490271_0" arrivalPos="212.97" arrivalSpeed="13.85" duration="158.00" routeLength="594.04" waitSteps="65" rerouteNo="0" devices="tripinfo_VehicleFlowEastToWest.18" vType="Vehicle" vaporized=""/>
    <tripinfo id="VehicleFlowEastToSouth.2" depart="90.00" departLane="-1365_2" departPos="4.10" departSpeed="0.00" departDelay="0.00" arrival="228.00" arrivalLane="239331353_0" arrivalPos="131.82" arrivalSpeed="13.99" duration="138.00" routeLength="530.61" waitSteps="47" rerouteNo="0" devices="tripinfo_VehicleFlowEastToSouth.2" vType="Vehicle" vaporized=""/>
    <tripinfo id="VehicleFlowWestToEast.3" depart="45.00" departLane="229259796_1" departPos="4.10" departSpeed="0.00" departDelay="0.00" arrival="229.00" arrivalLane="105490279_0" arrivalPos="352.04" arrivalSpeed="13.79" duration="184.00" routeLength="576.94" waitSteps="85" rerouteNo="0" devices="tripinfo_VehicleFlowWestToEast.3" vType="Vehicle" vaporized=""/>
    <tripinfo id="VehicleFlowWestToEast.4" depart="60.00" departLane="229259796_1" departPos="4.10" departSpeed="0.00" departDelay="0.00" arrival="231.00" arrivalLane="105490279_0" arrivalPos="352.04" arrivalSpeed="13.75" duration="171.00" routeLength="576.94" waitSteps="75" rerouteNo="0" devices="tripinfo_VehicleFlowWestToEast.4" vType="Vehicle" vaporized=""/>
    <tripinfo id="VehicleFlowNorthToSouth.2" depart="163.00" departLane="28925528_1" departPos="4.10" departSpeed="0.00" departDelay="-0.64" arrival="232.00" arrivalLane="239331353_0" arrivalPos="131.82" arrivalSpeed="16.21" duration="69.00" routeLength="272.01" waitSteps="22" rerouteNo="0" devices="tripinfo_VehicleFlowNorthToSouth.2" vType="Vehicle" vaporized=""/>
    <tripinfo id="VehicleFlowWestToEast.5" depart="75.00" departLane="229259796_1" departPos="4.10" departSpeed="0.00" departDelay="0.00" arrival="234.00" arrivalLane="105490279_0" arrivalPos="352.04" arrivalSpeed="13.79" duration="159.00" routeLength="576.94" waitSteps="52" rerouteNo="0" devices="tripinfo_VehicleFlowWestToEast.5" vType="Vehicle" vaporized=""/>
    <tripinfo id="VehicleFlowWestToEast.6" depart="90.00" departLane="229259796_1" departPos="4.10" departSpeed="0.00" departDelay="0.00" arrival="236.00" arrivalLane="105490279_0" arrivalPos="352.04" arrivalSpeed="13.82" duration="146.00" routeLength="576.94" waitSteps="39" rerouteNo="0" devices="tripinfo_VehicleFlowWestToEast.6" vType="Vehicle" vaporized=""/>
    <tripinfo id="VehicleFlowNorthToWest.8" depart="153.00" departLane="28925528_0" departPos="4.10" departSpeed="0.00" departDelay="-0.18" arrival="236.00" arrivalLane="105490271_0" arrivalPos="212.97" arrivalSpeed="13.49" duration="83.00" routeLength="335.44" waitSteps="32" rerouteNo="0" devices="tripinfo_VehicleFlowNorthToWest.8" vType="Vehicle" vaporized=""/>
    <tripinfo id="VehicleFlowNorthToWest.10" depart="191.00" departLane="28925528_1" departPos="4.10" departSpeed="0.00" departDelay="-0.48" arrival="237.00" arrivalLane="105490271_1" arrivalPos="212.97" arrivalSpeed="13.88" duration="46.00" routeLength="335.44" waitSteps="0" rerouteNo="0" devices="tripinfo_VehicleFlowNorthToWest.10" vType="Vehicle" vaporized=""/>
    <tripinfo id="VehicleFlowNorthToWest.9" depart="172.00" departLane="28925528_0" departPos="4.10" departSpeed="0.00" departDelay="-0.33" arrival="238.00" arrivalLane="105490271_0" arrivalPos="212.97" arrivalSpeed="13.52" duration="66.00" routeLength="335.44" waitSteps="15" rerouteNo="0" devices="tripinfo_VehicleFlowNorthToWest.9" vType="Vehicle" vaporized=""/>
    <tripinfo id="VehicleFlowWestToSouth.2" depart="100.00" departLane="229259796_1" departPos="4.10" departSpeed="0.00" departDelay="10.00" arrival="252.00" arrivalLane="239331353_0" arrivalPos="131.82" arrivalSpeed="13.43" duration="152.00" routeLength="336.88" waitSteps="58" rerouteNo="0" devices="tripinfo_VehicleFlowWestToSouth.2" vType="Vehicle" vaporized=""/>
    <tripinfo id="VehicleFlowEastToWest.21" depart="75.00" departLane="-1365_0" departPos="4.10" departSpeed="0.00" departDelay="-0.28" arrival="260.00" arrivalLane="105490271_0" arrivalPos="212.97" arrivalSpeed="13.51" duration="185.00" routeLength="594.04" waitSteps="80" rerouteNo="0" devices="tripinfo_VehicleFlowEastToWest.21" vType="Vehicle" vaporized=""/>
    <tripinfo id="VehicleFlowEastToWest.13" depart="47.00" departLane="-1365_1" departPos="4.10" departSpeed="0.00" departDelay="0.40" arrival="261.00" arrivalLane="105490271_1" arrivalPos="212.97" arrivalSpeed="13.79" duration="214.00" routeLength="594.04" waitSteps="95" rerouteNo="0" devices="tripinfo_VehicleFlowEastToWest.13" vType="Vehicle" vaporized=""/>
    <tripinfo id="VehicleFlowEastToWest.36" depart="129.00" departLane="-1365_2" departPos="4.10" departSpeed="0.00" departDelay="-0.06" arrival="262.00" arrivalLane="105490271_0" arrivalPos="212.97" arrivalSpeed="13.68" duration="133.00" routeLength="594.04" waitSteps="34" rerouteNo="0" devices="tripinfo_VehicleFlowEastToWest.36" vType="Vehicle" vaporized=""/>
    <tripinfo id="VehicleFlowEastToWest.22" depart="80.00" departLane="-1365_0" departPos="4.10" departSpeed="0.00" departDelay="1.13" arrival="265.00" arrivalLane="105490271_0" arrivalPos="212.97" arrivalSpeed="13.83" duration="185.00" routeLength="594.04" waitSteps="81" rerouteNo="0" devices="tripinfo_VehicleFlowEastToWest.22" vType="Vehicle" vaporized=""/>
    <tripinfo id="VehicleFlowEastToWest.16" depart="57.00" departLane="-1365_1" departPos="4.10" departSpeed="0.00" departDelay="-0.36" arrival="267.00" arrivalLane="105490271_0" arrivalPos="212.97" arrivalSpeed="13.78" duration="210.00" routeLength="594.04" waitSteps="101" rerouteNo="0" devices="tripinfo_VehicleFlowEastToWest.16" vType="Vehicle" vaporized=""/>
    <tripinfo id="VehicleFlowEastToWest.42" depart="150.00" departLane="-1365_2" departPos="4.10" departSpeed="0.00" departDelay="-0.57" arrival="268.00" arrivalLane="105490271_1" arrivalPos="212.97" arrivalSpeed="13.84" duration="118.00" routeLength="594.04" waitSteps="25" rerouteNo="0" devices="tripinfo_VehicleFlowEastToWest.42" vType="Vehicle" vaporized=""/>
    <tripinfo id="VehicleFlowEastToWest.24" depart="86.00" departLane="-1365_0" departPos="4.10" departSpeed="0.00" departDelay="-0.04" arrival="274.00" arrivalLane="105490271_0" arrivalPos="212.97" arrivalSpeed="13.61" duration="188.00" routeLength="594.04" waitSteps="87" rerouteNo="0" devices="tripinfo_VehicleFlowEastToWest.24" vType="Vehicle" vaporized=""/>
    <tripinfo id="VehicleFlowEastToWest.27" depart="96.00" departLane="-1365_0" departPos="4.10" departSpeed="0.00" departDelay="-0.80" arrival="277.00" arrivalLane="105490271_0" arrivalPos="212.97" arrivalSpeed="13.85" duration="181.00" routeLength="594.04" waitSteps="76" rerouteNo="0" devices="tripinfo_VehicleFlowEastToWest.27" vType="Vehicle" vaporized=""/>
    <tripinfo id="VehicleFlowEastToWest.44" depart="157.00" departLane="-1365_2" departPos="4.10" departSpeed="0.00" departDelay="-0.74" arrival="279.00" arrivalLane="105490271_1" arrivalPos="212.97" arrivalSpeed="13.76" duration="122.00" routeLength="594.04" waitSteps="28" rerouteNo="0" devices="tripinfo_VehicleFlowEastToWest.44" vType="Vehicle" vaporized=""/>
    <tripinfo id="VehicleFlowEastToWest.19" depart="68.00" departLane="-1365_1" departPos="4.10" departSpeed="0.00" departDelay="-0.11" arrival="280.00" arrivalLane="105490271_0" arrivalPos="212.97" arrivalSpeed="13.81" duration="212.00" routeLength="594.04" waitSteps="95" rerouteNo="0" devices="tripinfo_VehicleFlowEastToWest.19" vType="Vehicle" vaporized=""/>
    <tripinfo id="VehicleFlowEastToWest.46" depart="164.00" departLane="-1365_2" departPos="4.10" departSpeed="0.00" departDelay="-0.91" arrival="281.00" arrivalLane="105490271_1" arrivalPos="212.97" arrivalSpeed="13.59" duration="117.00" routeLength="594.04" waitSteps="20" rerouteNo="0" devices="tripinfo_VehicleFlowEastToWest.46" vType="Vehicle" vaporized=""/>
    <tripinfo id="VehicleFlowEastToSouth.3" depart="135.00" departLane="-1365_2" departPos="4.10" departSpeed="0.00" departDelay="0.00" arrival="281.00" arrivalLane="239331353_0" arrivalPos="131.82" arrivalSpeed="14.04" duration="146.00" routeLength="530.61" waitSteps="39" rerouteNo="0" devices="tripinfo_VehicleFlowEastToSouth.3" vType="Vehicle" vaporized=""/>
    <tripinfo id="VehicleFlowEastToWest.20" depart="71.00" departLane="-1365_2" departPos="4.10" departSpeed="0.00" departDelay="-0.70" arrival="283.00" arrivalLane="105490271_0" arrivalPos="212.97" arrivalSpeed="13.84" duration="212.00" routeLength="594.04" waitSteps="91" rerouteNo="0" devices="tripinfo_VehicleFlowEastToWest.20" vType="Vehicle" vaporized=""/>
    <tripinfo id="VehicleFlowEastToWest.26" depart="94.00" departLane="-1365_1" departPos="4.10" departSpeed="0.00" departDelay="0.79" arrival="287.00" arrivalLane="105490271_0" arrivalPos="212.97" arrivalSpeed="13.57" duration="193.00" routeLength="594.04" waitSteps="91" rerouteNo="0" devices="tripinfo_VehicleFlowEastToWest.26" vType="Vehicle" vaporized=""/>
    <tripinfo id="VehicleFlowWestToEast.7" depart="105.00" departLane="229259796_1" departPos="4.10" departSpeed="0.00" departDelay="0.00" arrival="303.00" arrivalLane="105490279_0" arrivalPos="352.04" arrivalSpeed="13.62" duration="198.00" routeLength="576.94" waitSteps="73" rerouteNo="0" devices="tripinfo_VehicleFlowWestToEast.7" vType="Vehicle" vaporized=""/>
    <tripinfo id="VehicleFlowNorthToWest.12" depart="229.00" departLane="28925528_1" departPos="4.10" departSpeed="0.00" departDelay="-0.78" arrival="305.00" arrivalLane="105490271_1" arrivalPos="212.97" arrivalSpeed="13.64" duration="76.00" routeLength="335.44" waitSteps="24" rerouteNo="0" devices="tripinfo_VehicleFlowNorthToWest.12" vType="Vehicle" vaporized=""/>
    <tripinfo id="VehicleFlowWestToEast.8" depart="120.00" departLane="229259796_1" departPos="4.10" departSpeed="0.00" departDelay="0.00" arrival="305.00" arrivalLane="105490279_0" arrivalPos="352.04" arrivalSpeed="13.71" duration="185.00" routeLength="576.94" waitSteps="63" rerouteNo="0" devices="tripinfo_VehicleFlowWestToEast.8" vType="Vehicle" vaporized=""/>