<?xml version="1.0" encoding="UTF-8"?>

<!-- generated on mar. 08 avril 2014 19:11:46 CEST by SUMO gui Version 0.19.0
<?xml version="1.0" encoding="UTF-8"?>

<configuration xmlns:xsi="http://www.w3.org/2001/XMLSchema-instance" xsi:noNamespaceSchemaLocation="http://sumo-sim.org/xsd/sumo-gui.exeConfiguration.xsd">

    <input>
        <net-file value="data/RondPoint.net.xml"/>
        <route-files value="data/RondPoint.rou.xml,data/RondPointBus.rou.xml"/>
        <additional-files value="data/RondPoint.det.xml"/>
    </input>

    <output>
        <tripinfo-output value="data/RondPointtripinfo.out.xml"/>
        <save-state.prefix value="data/state"/>
    </output>

    <time>
        <begin value="0"/>
    </time>

    <processing>
        <time-to-teleport value="400"/>
        <lanechange.allow-swap value="true"/>
    </processing>

    <report>
        <no-step-log value="true"/>
    </report>

    <traci_server>
        <remote-port value="8815"/>
    </traci_server>

</configuration>
-->

<tripinfos>
    <tripinfo id="BusFlowEastWest0.0" depart="0.00" departLane="-1356_0" departPos="6.10" departSpeed="0.00" departDelay="0.00" arrival="135.00" arrivalLane="240120122_0" arrivalPos="333.77" arrivalSpeed="12.91" duration="135.00" routeLength="695.94" waitSteps="31" rerouteNo="0" devices="tripinfo_BusFlowEastWest0.0" vType="Bus" vaporized=""/>
    <tripinfo id="BusFlowSouthNorth0.0" depart="0.00" departLane="239331354_0" departPos="6.10" departSpeed="0.00" departDelay="0.00" arrival="144.00" arrivalLane="105490284_0" arrivalPos="94.04" arrivalSpeed="13.44" duration="144.00" routeLength="246.57" waitSteps="111" rerouteNo="0" devices="tripinfo_BusFlowSouthNorth0.0" vType="Bus" vaporized=""/>
    <tripinfo id="BusFlowNorthSouth0.0" depart="0.00" departLane="28925528_0" departPos="6.10" departSpeed="0.00" departDelay="0.00" arrival="146.00" arrivalLane="239331353_0" arrivalPos="117.71" arrivalSpeed="16.10" duration="146.00" routeLength="244.54" waitSteps="112" rerouteNo="0" devices="tripinfo_BusFlowNorthSouth0.0" vType="Bus" vaporized=""/>
    <tripinfo id="VehicleFlowEastToNorth.0" depart="0.00" departLane="-1274_0" departPos="4.10" departSpeed="0.00" departDelay="0.00" arrival="151.00" arrivalLane="-1288_0" arrivalPos="146.00" arrivalSpeed="21.03" duration="151.00" routeLength="1166.29" waitSteps="57" rerouteNo="0" devices="tripinfo_VehicleFlowEastToNorth.0" vType="Vehicle" vaporized=""/>
    <tripinfo id="VehicleFlowSouthToWest.0" depart="59.00" departLane="-1336#0_0" departPos="4.10" departSpeed="0.00" departDelay="4.00" arrival="157.00" arrivalLane="-1326#2_1" arrivalPos="1003.38" arrivalSpeed="23.94" duration="98.00" routeLength="1886.59" waitSteps="0" rerouteNo="0" devices="tripinfo_VehicleFlowSouthToWest.0" vType="Vehicle" vaporized=""/>
    <tripinfo id="VehicleFlowWestToSouth.0" depart="0.00" departLane="-1324_0" departPos="4.10" departSpeed="0.00" departDelay="0.00" arrival="159.00" arrivalLane="--1336#0_0" arrivalPos="122.12" arrivalSpeed="21.71" duration="159.00" routeLength="1043.54" waitSteps="72" rerouteNo="0" devices="tripinfo_VehicleFlowWestToSouth.0" vType="Vehicle" vaporized=""/>
    <tripinfo id="VehicleFlowWestToNorth.0" depart="2.00" departLane="-1328#0_0" departPos="4.10" departSpeed="0.00" departDelay="2.00" arrival="164.00" arrivalLane="-1288_0" arrivalPos="146.00" arrivalSpeed="22.16" duration="162.00" routeLength="1246.00" waitSteps="44" rerouteNo="0" devices="tripinfo_VehicleFlowWestToNorth.0" vType="Vehicle" vaporized=""/>
    <tripinfo id="VehicleFlowSouthToNorth.0" depart="57.00" departLane="-1336#0_0" departPos="4.10" departSpeed="0.00" departDelay="2.00" arrival="166.00" arrivalLane="-1288_0" arrivalPos="146.00" arrivalSpeed="20.97" duration="109.00" routeLength="1018.26" waitSteps="20" rerouteNo="0" devices="tripinfo_VehicleFlowSouthToNorth.0" vType="Vehicle" vaporized=""/>
    <tripinfo id="VehicleFlowSouthToWest.1" depart="72.00" departLane="-1336#0_0" departPos="4.10" departSpeed="0.00" departDelay="-0.90" arrival="169.00" arrivalLane="-1326#2_1" arrivalPos="1003.38" arrivalSpeed="23.61" duration="97.00" routeLength="1886.59" waitSteps="0" rerouteNo="0" devices="tripinfo_VehicleFlowSouthToWest.1" vType="Vehicle" vaporized=""/>
    <tripinfo id="VehicleFlowNorthToSouth.0" depart="62.00" departLane="--1288_0" departPos="4.10" departSpeed="0.00" departDelay="2.00" arrival="174.00" arrivalLane="--1336#0_0" arrivalPos="122.12" arrivalSpeed="21.54" duration="112.00" routeLength="1015.63" waitSteps="21" rerouteNo="0" devices="tripinfo_VehicleFlowNorthToSouth.0" vType="Vehicle" vaporized=""/>
    <tripinfo id="VehicleFlowEastToNorth.1" depart="50.00" departLane="-1274_0" departPos="4.10" departSpeed="0.00" departDelay="0.00" arrival="176.00" arrivalLane="-1288_0" arrivalPos="146.00" arrivalSpeed="21.39" duration="126.00" routeLength="1166.29" waitSteps="25" rerouteNo="0" devices="tripinfo_VehicleFlowEastToNorth.1" vType="Vehicle" vaporized=""/>
    <tripinfo id="VehicleFlowEastToSouth.0" depart="2.00" departLane="-1274_0" departPos="4.10" departSpeed="0.00" departDelay="2.00" arrival="181.00" arrivalLane="--1336#0_0" arrivalPos="122.12" arrivalSpeed="20.80" duration="179.00" routeLength="1342.10" waitSteps="54" rerouteNo="0" devices="tripinfo_VehicleFlowEastToSouth.0" vType="Vehicle" vaporized=""/>
    <tripinfo id="VehicleFlowWestToSouth.1" depart="60.00" departLane="-1324_0" departPos="4.10" departSpeed="0.00" departDelay="0.00" arrival="186.00" arrivalLane="--1336#0_0" arrivalPos="122.12" arrivalSpeed="21.84" duration="126.00" routeLength="1043.54" waitSteps="24" rerouteNo="0" devices="tripinfo_VehicleFlowWestToSouth.1" vType="Vehicle" vaporized=""/>
    <tripinfo id="VehicleFlowWestToNorth.1" depart="22.00" departLane="-1328#0_0" departPos="4.10" departSpeed="0.00" departDelay="2.00" arrival="188.00" arrivalLane="-1288_0" arrivalPos="146.00" arrivalSpeed="20.97" duration="166.00" routeLength="1246.00" waitSteps="37" rerouteNo="0" devices="tripinfo_VehicleFlowWestToNorth.1" vType="Vehicle" vaporized=""/>
    <tripinfo id="VehicleFlowNorthToWest.0" depart="64.00" departLane="--1288_0" departPos="4.10" departSpeed="0.00" departDelay="4.00" arrival="190.00" arrivalLane="-1326#2_1" arrivalPos="1003.38" arrivalSpeed="24.70" duration="126.00" routeLength="2223.35" waitSteps="5" rerouteNo="0" devices="tripinfo_VehicleFlowNorthToWest.0" vType="Vehicle" vaporized=""/>
    <tripinfo id="VehicleFlowSouthToNorth.1" depart="82.00" departLane="-1336#0_0" departPos="4.10" departSpeed="0.00" departDelay="-0.12" arrival="190.00" arrivalLane="-1288_0" arrivalPos="146.00" arrivalSpeed="20.52" duration="108.00" routeLength="1018.26" waitSteps="17" rerouteNo="0" devices="tripinfo_VehicleFlowSouthToNorth.1" vType="Vehicle" vaporized=""/>
    <tripinfo id="VehicleFlowSouthToNorth.2" depart="110.00" departLane="-1336#0_0" departPos="4.10" departSpeed="0.00" departDelay="0.76" arrival="194.00" arrivalLane="-1288_0" arrivalPos="146.00" arrivalSpeed="21.91" duration="84.00" routeLength="1018.26" waitSteps="5" rerouteNo="0" devices="tripinfo_VehicleFlowSouthToNorth.2" vType="Vehicle" vaporized=""/>
    <tripinfo id="VehicleFlowSouthToWest.2" depart="90.00" departLane="-1336#0_0" departPos="4.10" departSpeed="0.00" departDelay="-0.80" arrival="195.00" arrivalLane="-1326#2_1" arrivalPos="1003.38" arrivalSpeed="24.90" duration="105.00" routeLength="1886.59" waitSteps="1" rerouteNo="0" devices="tripinfo_VehicleFlowSouthToWest.2" vType="Vehicle" vaporized=""/>
    <tripinfo id="VehicleFlowNorthToWest.1" depart="81.00" departLane="--1288_0" departPos="4.10" departSpeed="0.00" departDelay="-0.19" arrival="197.00" arrivalLane="-1326#2_1" arrivalPos="1003.38" arrivalSpeed="23.38" duration="116.00" routeLength="2223.35" waitSteps="0" rerouteNo="0" devices="tripinfo_VehicleFlowNorthToWest.1" vType="Vehicle" vaporized=""/>
    <tripinfo id="VehicleFlowNorthToSouth.1" depart="94.00" departLane="--1288_0" departPos="4.10" departSpeed="0.00" departDelay="-0.23" arrival="200.00" arrivalLane="--1336#0_0" arrivalPos="122.12" arrivalSpeed="21.82" duration="106.00" routeLength="1015.63" waitSteps="17" rerouteNo="0" devices="tripinfo_VehicleFlowNorthToSouth.1" vType="Vehicle" vaporized=""/>
    <tripinfo id="VehicleFlowEastToNorth.2" depart="100.00" departLane="-1274_0" departPos="4.10" departSpeed="0.00" departDelay="0.00" arrival="202.00" arrivalLane="-1288_0" arrivalPos="146.00" arrivalSpeed="20.78" duration="102.00" routeLength="1166.29" waitSteps="11" rerouteNo="0" devices="tripinfo_VehicleFlowEastToNorth.2" vType="Vehicle" vaporized=""/>
    <tripinfo id="BusFlowWestEast0.0" depart="0.00" departLane="-240120122_0" departPos="6.10" departSpeed="0.00" departDelay="0.00" arrival="208.00" arrivalLane="--1356_0" arrivalPos="327.97" arrivalSpeed="4.72" duration="208.00" routeLength="692.33" waitSteps="82" rerouteNo="0" devices="tripinfo_BusFlowWestEast0.0" vType="Bus" vaporized=""/>
    <tripinfo id="VehicleFlowSouthToEast.0" depart="55.00" departLane="-1336#0_0" departPos="4.10" departSpeed="0.00" departDelay="0.00" arrival="209.00" arrivalLane="-1282#1_1" arrivalPos="488.08" arrivalSpeed="12.85" duration="154.00" routeLength="1721.38" waitSteps="3" rerouteNo="0" devices="tripinfo_VehicleFlowSouthToEast.0" vType="Vehicle" vaporized=""/>
    <tripinfo id="VehicleFlowSouthToWest.3" depart="108.00" departLane="-1336#0_0" departPos="4.10" departSpeed="0.00" departDelay="-0.70" arrival="210.00" arrivalLane="-1326#2_1" arrivalPos="1003.38" arrivalSpeed="23.44" duration="102.00" routeLength="1886.59" waitSteps="2" rerouteNo="0" devices="tripinfo_VehicleFlowSouthToWest.3" vType="Vehicle" vaporized=""/>
    <tripinfo id="VehicleFlowWestToEast_0.0" depart="0.00" departLane="229259796#0_0" departPos="4.10" departSpeed="0.00" departDelay="0.00" arrival="219.00" arrivalLane="-1282#1_1" arrivalPos="488.08" arrivalSpeed="13.25" duration="219.00" routeLength="1403.99" waitSteps="86" rerouteNo="0" devices="tripinfo_VehicleFlowWestToEast_0.0" vType="Vehicle" vaporized=""/>
    <tripinfo id="VehicleFlowSouthToWest.4" depart="126.00" departLane="-1336#0_0" departPos="4.10" departSpeed="0.00" departDelay="-0.60" arrival="221.00" arrivalLane="-1326#2_1" arrivalPos="1003.38" arrivalSpeed="24.62" duration="95.00" routeLength="1886.59" waitSteps="0" rerouteNo="0" devices="tripinfo_VehicleFlowSouthToWest.4" vType="Vehicle" vaporized=""/>
    <tripinfo id="VehicleFlowWestToEast_0.1" depart="8.00" departLane="229259796#0_0" departPos="4.10" departSpeed="0.00" departDelay="-0.57" arrival="223.00" arrivalLane="-1282#1_1" arrivalPos="488.08" arrivalSpeed="13.07" duration="215.00" routeLength="1403.99" waitSteps="78" rerouteNo="0" devices="tripinfo_VehicleFlowWestToEast_0.1" vType="Vehicle" vaporized=""/>
    <tripinfo id="VehicleFlowNorthToSouth.2" depart="128.00" departLane="--1288_0" departPos="4.10" departSpeed="0.00" departDelay="-0.46" arrival="223.00" arrivalLane="--1336#0_0" arrivalPos="122.12" arrivalSpeed="20.96" duration="95.00" routeLength="1015.63" waitSteps="8" rerouteNo="0" devices="tripinfo_VehicleFlowNorthToSouth.2" vType="Vehicle" vaporized=""/>
    <tripinfo id="VehicleFlowEastToWest.0" depart="4.00" departLane="-1274_0" departPos="4.10" departSpeed="0.00" departDelay="4.00" arrival="227.00" arrivalLane="-1326#2_1" arrivalPos="1003.38" arrivalSpeed="24.70" duration="223.00" routeLength="2549.82" waitSteps="63" rerouteNo="0" devices="tripinfo_VehicleFlowEastToWest.0" vType="Vehicle" vaporized=""/>
    <tripinfo id="VehicleFlowEastToSouth.1" depart="102.00" departLane="-1274_0" departPos="4.10" departSpeed="0.00" departDelay="2.00" arrival="227.00" arrivalLane="--1336#0_0" arrivalPos="122.12" arrivalSpeed="21.19" duration="125.00" routeLength="1342.10" waitSteps="9" rerouteNo="0" devices="tripinfo_VehicleFlowEastToSouth.1" vType="Vehicle" vaporized=""/>
    <tripinfo id="VehicleFlowWestToEast_0.3" depart="25.00" departLane="229259796#0_0" departPos="4.10" departSpeed="0.00" departDelay="-0.71" arrival="228.00" arrivalLane="-1282#1_1" arrivalPos="488.08" arrivalSpeed="13.72" duration="203.00" routeLength="1403.99" waitSteps="65" rerouteNo="0" devices="tripinfo_VehicleFlowWestToEast_0.3" vType="Vehicle" vaporized=""/>
    <tripinfo id="VehicleFlowEastToWest_0.0" depart="0.00" departLane="-1354_0" departPos="4.10" departSpeed="0.00" departDelay="0.00" arrival="229.00" arrivalLane="-1326#2_0" arrivalPos="1003.38" arrivalSpeed="23.91" duration="229.00" routeLength="2451.04" waitSteps="74" rerouteNo="0" devices="tripinfo_VehicleFlowEastToWest_0.0" vType="Vehicle" vaporized=""/>
    <tripinfo id="VehicleFlowEastToWest_1.0" depart="0.00" departLane="-1280#0_0" departPos="4.10" departSpeed="0.00" departDelay="0.00" arrival="230.00" arrivalLane="-1326#2_1" arrivalPos="1003.38" arrivalSpeed="23.42" duration="230.00" routeLength="3034.54" waitSteps="27" rerouteNo="0" devices="tripinfo_VehicleFlowEastToWest_1.0" vType="Vehicle" vaporized=""/>
    <tripinfo id="VehicleFlowEastToWest_0.1" depart="18.00" departLane="-1354_0" departPos="4.10" departSpeed="0.00" departDelay="-0.75" arrival="231.00" arrivalLane="-1326#2_0" arrivalPos="1003.38" arrivalSpeed="24.74" duration="213.00" routeLength="2451.04" waitSteps="55" rerouteNo="0" devices="tripinfo_VehicleFlowEastToWest_0.1" vType="Vehicle" vaporized=""/>
    <tripinfo id="VehicleFlowEastToWest_0.3" depart="60.00" departLane="-1354_0" departPos="4.10" departSpeed="0.00" departDelay="3.75" arrival="231.00" arrivalLane="-1326#2_1" arrivalPos="1003.38" arrivalSpeed="24.53" duration="171.00" routeLength="2451.04" waitSteps="11" rerouteNo="0" devices="tripinfo_VehicleFlowEastToWest_0.3" vType="Vehicle" vaporized=""/>
    <tripinfo id="VehicleFlowEastToWest.1" depart="18.00" departLane="-1274_0" departPos="4.10" departSpeed="0.00" departDelay="-0.75" arrival="233.00" arrivalLane="-1326#2_0" arrivalPos="1003.38" arrivalSpeed="23.38" duration="215.00" routeLength="2549.82" waitSteps="48" rerouteNo="0" devices="tripinfo_VehicleFlowEastToWest.1" vType="Vehicle" vaporized=""/>
    <tripinfo id="VehicleFlowWestToEast_0.7" depart="60.00" departLane="229259796#0_0" departPos="4.10" departSpeed="0.00" departDelay="0.00" arrival="233.00" arrivalLane="-1282#1_1" arrivalPos="488.08" arrivalSpeed="13.58" duration="173.00" routeLength="1403.99" waitSteps="35" rerouteNo="0" devices="tripinfo_VehicleFlowWestToEast_0.7" vType="Vehicle" vaporized=""/>
    <tripinfo id="VehicleFlowEastToWest_1.1" depart="18.00" departLane="-1280#0_0" departPos="4.10" departSpeed="0.00" departDelay="-0.75" arrival="233.00" arrivalLane="-1326#2_1" arrivalPos="1003.38" arrivalSpeed="24.30" duration="215.00" routeLength="3034.54" waitSteps="9" rerouteNo="0" devices="tripinfo_VehicleFlowEastToWest_1.1" vType="Vehicle" vaporized=""/>
    <tripinfo id="VehicleFlowEastToWest.3" depart="56.00" departLane="-1274_0" departPos="4.10" departSpeed="0.00" departDelay="-0.25" arrival="235.00" arrivalLane="-1326#2_0" arrivalPos="1003.38" arrivalSpeed="24.06" duration="179.00" routeLength="2549.82" waitSteps="10" rerouteNo="0" devices="tripinfo_VehicleFlowEastToWest.3" vType="Vehicle" vaporized=""/>
    <tripinfo id="VehicleFlowEastToWest.2" depart="37.00" departLane="-1274_0" departPos="4.10" departSpeed="0.00" departDelay="-0.50" arrival="235.00" arrivalLane="-1326#2_1" arrivalPos="1003.38" arrivalSpeed="24.88" duration="198.00" routeLength="2549.82" waitSteps="34" rerouteNo="0" devices="tripinfo_VehicleFlowEastToWest.2" vType="Vehicle" vaporized=""/>
    <tripinfo id="VehicleFlowNorthToWest.2" depart="102.00" departLane="--1288_0" departPos="4.10" departSpeed="0.00" departDelay="-0.38" arrival="236.00" arrivalLane="-1326#2_0" arrivalPos="1003.38" arrivalSpeed="24.97" duration="134.00" routeLength="2223.35" waitSteps="5" rerouteNo="0" devices="tripinfo_VehicleFlowNorthToWest.2" vType="Vehicle" vaporized=""/>
    <tripinfo id="VehicleFlowWestToEast_0.6" depart="51.00" departLane="229259796#0_0" departPos="4.10" departSpeed="0.00" departDelay="-0.43" arrival="236.00" arrivalLane="-1282#1_1" arrivalPos="488.08" arrivalSpeed="13.14" duration="185.00" routeLength="1403.99" waitSteps="44" rerouteNo="0" devices="tripinfo_VehicleFlowWestToEast_0.6" vType="Vehicle" vaporized=""/>
    <tripinfo id="VehicleFlowEastToWest_1.2" depart="37.00" departLane="-1280#0_0" departPos="4.10" departSpeed="0.00" departDelay="-0.50" arrival="237.00" arrivalLane="-1326#2_1" arrivalPos="1003.38" arrivalSpeed="23.26" duration="200.00" routeLength="3034.54" waitSteps="7" rerouteNo="0" devices="tripinfo_VehicleFlowEastToWest_1.2" vType="Vehicle" vaporized=""/>
    <tripinfo id="VehicleFlowEastToNorth.3" depart="150.00" departLane="-1274_0" departPos="4.10" departSpeed="0.00" departDelay="0.00" arrival="237.00" arrivalLane="-1288_0" arrivalPos="146.00" arrivalSpeed="21.98" duration="87.00" routeLength="1166.29" waitSteps="0" rerouteNo="0" devices="tripinfo_VehicleFlowEastToNorth.3" vType="Vehicle" vaporized=""/>
    <tripinfo id="VehicleFlowEastToWest_0.2" depart="37.00" departLane="-1354_0" departPos="4.10" departSpeed="0.00" departDelay="-0.50" arrival="239.00" arrivalLane="-1326#2_0" arrivalPos="1003.38" arrivalSpeed="24.62" duration="202.00" routeLength="2451.04" waitSteps="45" rerouteNo="0" devices="tripinfo_VehicleFlowEastToWest_0.2" vType="Vehicle" vaporized=""/>
    <tripinfo id="VehicleFlowEastToWest_0.5" depart="93.00" departLane="-1354_0" departPos="4.10" departSpeed="0.00" departDelay="-0.75" arrival="240.00" arrivalLane="-1326#2_1" arrivalPos="1003.38" arrivalSpeed="24.00" duration="147.00" routeLength="2451.04" waitSteps="0" rerouteNo="0" devices="tripinfo_VehicleFlowEastToWest_0.5" vType="Vehicle" vaporized=""/>
    <tripinfo id="VehicleFlowEastToWest_0.4" depart="75.00" departLane="-1354_0" departPos="4.10" departSpeed="0.00" departDelay="0.00" arrival="241.00" arrivalLane="-1326#2_0" arrivalPos="1003.38" arrivalSpeed="23.35" duration="166.00" routeLength="2451.04" waitSteps="12" rerouteNo="0" devices="tripinfo_VehicleFlowEastToWest_0.4" vType="Vehicle" vaporized=""/>
    <tripinfo id="VehicleFlowEastToWest.4" depart="75.00" departLane="-1274_0" departPos="4.10" departSpeed="0.00" departDelay="0.00" arrival="241.00" arrivalLane="-1326#2_1" arrivalPos="1003.38" arrivalSpeed="23.79" duration="166.00" routeLength="2549.82" waitSteps="10" rerouteNo="0" devices="tripinfo_VehicleFlowEastToWest.4" vType="Vehicle" vaporized=""/>
    <tripinfo id="VehicleFlowSouthToNorth.3" depart="136.00" departLane="-1336#0_0" departPos="4.10" departSpeed="0.00" departDelay="-0.36" arrival="242.00" arrivalLane="-1288_0" arrivalPos="146.00" arrivalSpeed="22.14" duration="106.00" routeLength="1018.26" waitSteps="15" rerouteNo="0" devices="tripinfo_VehicleFlowSouthToNorth.3" vType="Vehicle" vaporized=""/>
    <tripinfo id="VehicleFlowWestToNorth.2" depart="42.00" departLane="-1328#0_0" departPos="4.10" departSpeed="0.00" departDelay="2.00" arrival="244.00" arrivalLane="-1288_0" arrivalPos="146.00" arrivalSpeed="20.54" duration="202.00" routeLength="1246.00" waitSteps="70" rerouteNo="0" devices="tripinfo_VehicleFlowWestToNorth.2" vType="Vehicle" vaporized=""/>
    <tripinfo id="VehicleFlowSouthToWest.5" depart="146.00" departLane="-1336#0_0" departPos="4.10" departSpeed="0.00" departDelay="1.50" arrival="249.00" arrivalLane="-1326#2_1" arrivalPos="1003.38" arrivalSpeed="23.81" duration="103.00" routeLength="1886.59" waitSteps="3" rerouteNo="0" devices="tripinfo_VehicleFlowSouthToWest.5" vType="Vehicle" vaporized=""/>
    <tripinfo id="VehicleFlowWestToSouth.2" depart="123.00" departLane="-1324_0" departPos="4.10" departSpeed="0.00" departDelay="3.00" arrival="249.00" arrivalLane="--1336#0_0" arrivalPos="122.12" arrivalSpeed="21.25" duration="126.00" routeLength="1043.54" waitSteps="23" rerouteNo="0" devices="tripinfo_VehicleFlowWestToSouth.2" vType="Vehicle" vaporized=""/>
    <tripinfo id="VehicleFlowWestToEast.0" depart="0.00" departLane="-1328#0_0" departPos="4.10" departSpeed="0.00" departDelay="0.00" arrival="251.00" arrivalLane="-1282#1_1" arrivalPos="488.08" arrivalSpeed="13.75" duration="251.00" routeLength="1949.12" waitSteps="64" rerouteNo="0" devices="tripinfo_VehicleFlowWestToEast.0" vType="Vehicle" vaporized=""/>
    <tripinfo id="VehicleFlowWestToEast_0.9" depart="77.00" departLane="229259796#0_0" departPos="4.10" departSpeed="0.00" departDelay="-0.14" arrival="255.00" arrivalLane="-1282#1_1" arrivalPos="488.08" arrivalSpeed="13.65" duration="178.00" routeLength="1403.99" waitSteps="31" rerouteNo="0" devices="tripinfo_VehicleFlowWestToEast_0.9" vType="Vehicle" vaporized=""/>
    <tripinfo id="VehicleFlowNorthToSouth.3" depart="162.00" departLane="--1288_0" departPos="4.10" departSpeed="0.00" departDelay="-0.69" arrival="257.00" arrivalLane="--1336#0_0" arrivalPos="122.12" arrivalSpeed="21.16" duration="95.00" routeLength="1015.63" waitSteps="3" rerouteNo="0" devices="tripinfo_VehicleFlowNorthToSouth.3" vType="Vehicle" vaporized=""/>
    <tripinfo id="VehicleFlowWestToEast_0.5" depart="42.00" departLane="229259796#0_0" departPos="4.10" departSpeed="0.00" departDelay="-0.85" arrival="258.00" arrivalLane="-1282#1_1" arrivalPos="488.08" arrivalSpeed="12.64" duration="216.00" routeLength="1403.99" waitSteps="57" rerouteNo="0" devices="tripinfo_VehicleFlowWestToEast_0.5" vType="Vehicle" vaporized=""/>
    <tripinfo id="VehicleFlowSouthToWest.6" depart="162.00" departLane="-1336#0_0" departPos="4.10" departSpeed="0.00" departDelay="-0.40" arrival="262.00" arrivalLane="-1326#2_0" arrivalPos="1003.38" arrivalSpeed="23.47" duration="100.00" routeLength="1886.59" waitSteps="0" rerouteNo="0" devices="tripinfo_VehicleFlowSouthToWest.6" vType="Vehicle" vaporized=""/>
    <tripinfo id="VehicleFlowEastToWest.5" depart="93.00" departLane="-1274_0" departPos="4.10" departSpeed="0.00" departDelay="-0.75" arrival="265.00" arrivalLane="-1326#2_0" arrivalPos="1003.38" arrivalSpeed="24.18" duration="172.00" routeLength="2549.82" waitSteps="21" rerouteNo="0" devices="tripinfo_VehicleFlowEastToWest.5" vType="Vehicle" vaporized=""/>
    <tripinfo id="VehicleFlowNorthToEast.0" depart="60.00" departLane="--1288_0" departPos="4.10" departSpeed="0.00" departDelay="0.00" arrival="265.00" arrivalLane="-1282#1_1" arrivalPos="488.08" arrivalSpeed="13.63" duration="205.00" routeLength="1640.74" waitSteps="36" rerouteNo="0" devices="tripinfo_VehicleFlowNorthToEast.0" vType="Vehicle" vaporized=""/>
    <tripinfo id="VehicleFlowNorthToWest.3" depart="123.00" departLane="--1288_0" departPos="4.10" departSpeed="0.00" departDelay="-0.57" arrival="265.00" arrivalLane="-1326#2_1" arrivalPos="1003.38" arrivalSpeed="24.62" duration="142.00" routeLength="2223.35" waitSteps="14" rerouteNo="0" devices="tripinfo_VehicleFlowNorthToWest.3" vType="Vehicle" vaporized=""/>
    <tripinfo id="VehicleFlowWestToEast_0.11" depart="94.00" departLane="229259796#0_0" departPos="4.10" departSpeed="0.00" departDelay="-0.28" arrival="267.00" arrivalLane="-1282#1_1" arrivalPos="488.08" arrivalSpeed="13.83" duration="173.00" routeLength="1403.99" waitSteps="16" rerouteNo="0" devices="tripinfo_VehicleFlowWestToEast_0.11" vType="Vehicle" vaporized=""/>
    <tripinfo id="VehicleFlowNorthToWest.4" depart="144.00" departLane="--1288_0" departPos="4.10" departSpeed="0.00" departDelay="-0.76" arrival="267.00" arrivalLane="-1326#2_1" arrivalPos="1003.38" arrivalSpeed="24.73" duration="123.00" routeLength="2223.35" waitSteps="1" rerouteNo="0" devices="tripinfo_VehicleFlowNorthToWest.4" vType="Vehicle" vaporized=""/>
    <tripinfo id="VehicleFlowEastToWest_1.3" depart="56.00" departLane="-1280#0_0" departPos="4.10" departSpeed="0.00" departDelay="-0.25" arrival="268.00" arrivalLane="-1326#2_0" arrivalPos="1003.38" arrivalSpeed="24.17" duration="212.00" routeLength="3034.54" waitSteps="13" rerouteNo="0" devices="tripinfo_VehicleFlowEastToWest_1.3" vType="Vehicle" vaporized=""/>
    <tripinfo id="VehicleFlowWestToNorth.3" depart="61.00" departLane="-1328#0_0" departPos="4.10" departSpeed="0.00" departDelay="1.00" arrival="269.00" arrivalLane="-1288_0" arrivalPos="146.00" arrivalSpeed="21.05" duration="208.00" routeLength="1246.00" waitSteps="71" rerouteNo="0" devices="tripinfo_VehicleFlowWestToNorth.3" vType="Vehicle" vaporized=""/>
    <tripinfo id="VehicleFlowEastToWest.6" depart="112.00" departLane="-1274_0" departPos="4.10" departSpeed="0.00" departDelay="-0.50" arrival="270.00" arrivalLane="-1326#2_0" arrivalPos="1003.38" arrivalSpeed="24.74" duration="158.00" routeLength="2549.82" waitSteps="2" rerouteNo="0" devices="tripinfo_VehicleFlowEastToWest.6" vType="Vehicle" vaporized=""/>
    <tripinfo id="VehicleFlowSouthToEast.1" depart="84.00" departLane="-1336#0_0" departPos="4.10" departSpeed="0.00" departDelay="-0.83" arrival="270.00" arrivalLane="-1282#1_1" arrivalPos="488.08" arrivalSpeed="13.47" duration="186.00" routeLength="1721.38" waitSteps="11" rerouteNo="0" devices="tripinfo_VehicleFlowSouthToEast.1" vType="Vehicle" vaporized=""/>
    <tripinfo id="VehicleFlowEastToWest_1.4" depart="75.00" departLane="-1280#0_0" departPos="4.10" departSpeed="0.00" departDelay="0.00" arrival="270.00" arrivalLane="-1326#2_1" arrivalPos="1003.38" arrivalSpeed="24.50" duration="195.00" routeLength="3034.54" waitSteps="0" rerouteNo="0" devices="tripinfo_VehicleFlowEastToWest_1.4" vType="Vehicle" vaporized=""/>
    <tripinfo id="VehicleFlowEastToWest_0.6" depart="112.00" departLane="-1354_0" departPos="4.10" departSpeed="0.00" departDelay="-0.50" arrival="271.00" arrivalLane="-1326#2_1" arrivalPos="1003.38" arrivalSpeed="24.78" duration="159.00" routeLength="2451.04" waitSteps="6" rerouteNo="0" devices="tripinfo_VehicleFlowEastToWest_0.6" vType="Vehicle" vaporized=""/>
    <tripinfo id="VehicleFlowSouthToNorth.4" depart="164.00" departLane="-1336#0_0" departPos="4.10" departSpeed="0.00" departDelay="0.52" arrival="272.00" arrivalLane="-1288_0" arrivalPos="146.00" arrivalSpeed="21.59" duration="108.00" routeLength="1018.26" waitSteps="21" rerouteNo="0" devices="tripinfo_VehicleFlowSouthToNorth.4" vType="Vehicle" vaporized=""/>
    <tripinfo id="VehicleFlowWestToEast.1" depart="6.00" departLane="-1328#0_0" departPos="4.10" departSpeed="0.00" departDelay="-0.67" arrival="275.00" arrivalLane="-1282#1_1" arrivalPos="488.08" arrivalSpeed="12.66" duration="269.00" routeLength="1949.12" waitSteps="60" rerouteNo="0" devices="tripinfo_VehicleFlowWestToEast.1" vType="Vehicle" vaporized=""/>
    <tripinfo id="VehicleFlowSouthToWest.7" depart="180.00" departLane="-1336#0_0" departPos="4.10" departSpeed="0.00" departDelay="-0.30" arrival="278.00" arrivalLane="-1326#2_1" arrivalPos="1003.38" arrivalSpeed="23.81" duration="98.00" routeLength="1886.59" waitSteps="0" rerouteNo="0" devices="tripinfo_VehicleFlowSouthToWest.7" vType="Vehicle" vaporized=""/>
    <tripinfo id="VehicleFlowWestToEast_0.2" depart="17.00" departLane="229259796#0_0" departPos="4.10" departSpeed="0.00" departDelay="-0.14" arrival="279.00" arrivalLane="-1282#1_1" arrivalPos="488.08" arrivalSpeed="13.39" duration="262.00" routeLength="1403.99" waitSteps="97" rerouteNo="0" devices="tripinfo_VehicleFlowWestToEast_0.2" vType="Vehicle" vaporized=""/>
    <tripinfo id="VehicleFlowNorthToSouth.4" depart="196.00" departLane="--1288_0" departPos="4.10" departSpeed="0.00" departDelay="-0.92" arrival="279.00" arrivalLane="--1336#0_0" arrivalPos="122.12" arrivalSpeed="21.50" duration="83.00" routeLength="1015.63" waitSteps="0" rerouteNo="0" devices="tripinfo_VehicleFlowNorthToSouth.4" vType="Vehicle" vaporized=""/>
    <tripinfo id="VehicleFlowWestToEast.3" depart="20.00" departLane="-1328#0_0" departPos="4.10" departSpeed="0.00" departDelay="0.00" arrival="281.00" arrivalLane="-1282#1_1" arrivalPos="488.08" arrivalSpeed="12.65" duration="261.00" routeLength="1949.12" waitSteps="44" rerouteNo="0" devices="tripinfo_VehicleFlowWestToEast.3" vType="Vehicle" vaporized=""/>
    <tripinfo id="VehicleFlowWestToEast_0.4" depart="34.00" departLane="229259796#0_0" departPos="4.10" departSpeed="0.00" departDelay="-0.28" arrival="284.00" arrivalLane="-1282#1_1" arrivalPos="488.08" arrivalSpeed="13.64" duration="250.00" routeLength="1403.99" waitSteps="74" rerouteNo="0" devices="tripinfo_VehicleFlowWestToEast_0.4" vType="Vehicle" vaporized=""/>
    <tripinfo id="VehicleFlowEastToNorth.4" depart="200.00" departLane="-1274_0" departPos="4.10" departSpeed="0.00" departDelay="0.00" arrival="286.00" arrivalLane="-1288_0" arrivalPos="146.00" arrivalSpeed="21.14" duration="86.00" routeLength="1166.29" waitSteps="0" rerouteNo="0" devices="tripinfo_VehicleFlowEastToNorth.4" vType="Vehicle" vaporized=""/>
    <tripinfo id="VehicleFlowSouthToEast.2" depart="114.00" departLane="-1336#0_0" departPos="4.10" departSpeed="0.00" departDelay="-0.67" arrival="287.00" arrivalLane="-1282#1_1" arrivalPos="488.08" arrivalSpeed="13.53" duration="173.00" routeLength="1721.38" waitSteps="0" rerouteNo="0" devices="tripinfo_VehicleFlowSouthToEast.2" vType="Vehicle" vaporized=""/>
    <tripinfo id="VehicleFlowWestToEast_0.12" depart="102.00" departLane="229259796#0_0" departPos="4.10" departSpeed="0.00" departDelay="-0.85" arrival="291.00" arrivalLane="-1282#1_1" arrivalPos="488.08" arrivalSpeed="13.79" duration="189.00" routeLength="1403.99" waitSteps="43" rerouteNo="0" devices="tripinfo_VehicleFlowWestToEast_0.12" vType="Vehicle" vaporized=""/>
    <tripinfo id="VehicleFlowSouthToWest.8" depart="198.00" departLane="-1336#0_0" departPos="4.10" departSpeed="0.00" departDelay="-0.20" arrival="294.00" arrivalLane="-1326#2_1" arrivalPos="1003.38" arrivalSpeed="24.57" duration="96.00" routeLength="1886.59" waitSteps="0" rerouteNo="0" devices="tripinfo_VehicleFlowSouthToWest.8" vType="Vehicle" vaporized=""/>