<?xml version="1.0" encoding="UTF-8"?>

<!-- generated on ven. 11 avril 2014 11:39:18 CEST by SUMO gui Version 0.19.0
<?xml version="1.0" encoding="UTF-8"?>

<configuration xmlns:xsi="http://www.w3.org/2001/XMLSchema-instance" xsi:noNamespaceSchemaLocation="http://sumo-sim.org/xsd/sumo-gui.exeConfiguration.xsd">

    <input>
        <net-file value="data/RondPoint.net.xml"/>
        <route-files value="data/RondPoint.rou.xml,data/RondPointBus.rou.xml"/>
        <additional-files value="data/RondPoint.det.xml"/>
    </input>

    <output>
        <tripinfo-output value="data/RondPointtripinfo.out.xml"/>
        <save-state.prefix value="data/state"/>
    </output>

    <time>
        <begin value="0"/>
    </time>

    <processing>
        <ignore-accidents value="true"/>
        <ignore-route-errors value="true"/>
        <time-to-teleport value="400"/>
        <lanechange.allow-swap value="true"/>
    </processing>

    <report>
        <no-warnings value="true"/>
        <no-step-log value="true"/>
    </report>

    <traci_server>
        <remote-port value="8815"/>
    </traci_server>

</configuration>
-->

<tripinfos>
    <tripinfo id="VehicleFlowWestToWest.0" depart="5.00" departLane="-1328#0_0" departPos="4.10" departSpeed="0.00" departDelay="5.00" arrival="89.00" arrivalLane="-1326#2_1" arrivalPos="1003.38" arrivalSpeed="23.52" duration="84.00" routeLength="1565.09" waitSteps="0" rerouteNo="0" devices="tripinfo_VehicleFlowWestToWest.0" vType="Vehicle" vaporized=""/>
    <tripinfo id="BusFlowEastWest0.0" depart="0.00" departLane="-1356_0" departPos="6.10" departSpeed="0.00" departDelay="0.00" arrival="135.00" arrivalLane="240120122_0" arrivalPos="333.77" arrivalSpeed="13.72" duration="135.00" routeLength="695.94" waitSteps="31" rerouteNo="0" devices="tripinfo_BusFlowEastWest0.0" vType="Bus" vaporized=""/>
    <tripinfo id="BusFlowNorthSouth0.0" depart="0.00" departLane="28925528_0" departPos="6.10" departSpeed="0.00" departDelay="0.00" arrival="144.00" arrivalLane="239331353_0" arrivalPos="117.71" arrivalSpeed="22.00" duration="144.00" routeLength="244.54" waitSteps="104" rerouteNo="0" devices="tripinfo_BusFlowNorthSouth0.0" vType="Bus" vaporized=""/>
    <tripinfo id="BusFlowSouthNorth0.0" depart="0.00" departLane="239331354_0" departPos="6.10" departSpeed="0.00" departDelay="0.00" arrival="146.00" arrivalLane="105490284_0" arrivalPos="94.04" arrivalSpeed="12.99" duration="146.00" routeLength="246.57" waitSteps="112" rerouteNo="0" devices="tripinfo_BusFlowSouthNorth0.0" vType="Bus" vaporized=""/>
    <tripinfo id="VehicleFlowEastToNorth.0" depart="0.00" departLane="-1274_0" departPos="4.10" departSpeed="0.00" departDelay="0.00" arrival="150.00" arrivalLane="-1288_0" arrivalPos="146.00" arrivalSpeed="22.15" duration="150.00" routeLength="1166.29" waitSteps="57" rerouteNo="0" devices="tripinfo_VehicleFlowEastToNorth.0" vType="Vehicle" vaporized=""/>
    <tripinfo id="VehicleFlowSouthToNorth.0" depart="57.00" departLane="-1336#0_0" departPos="4.10" departSpeed="0.00" departDelay="2.00" arrival="161.00" arrivalLane="-1288_0" arrivalPos="146.00" arrivalSpeed="21.73" duration="104.00" routeLength="1018.26" waitSteps="16" rerouteNo="0" devices="tripinfo_VehicleFlowSouthToNorth.0" vType="Vehicle" vaporized=""/>
    <tripinfo id="VehicleFlowNorthToNorth.0" depart="62.00" departLane="--1288_0" departPos="4.10" departSpeed="0.00" departDelay="2.00" arrival="167.00" arrivalLane="-1288_0" arrivalPos="146.00" arrivalSpeed="22.00" duration="105.00" routeLength="937.62" waitSteps="19" rerouteNo="0" devices="tripinfo_VehicleFlowNorthToNorth.0" vType="Vehicle" vaporized=""/>
    <tripinfo id="BusFlowWestEast0.0" depart="0.00" departLane="-240120122_0" departPos="6.10" departSpeed="0.00" departDelay="0.00" arrival="179.00" arrivalLane="--1356_0" arrivalPos="327.97" arrivalSpeed="4.29" duration="179.00" routeLength="695.43" waitSteps="68" rerouteNo="0" devices="tripinfo_BusFlowWestEast0.0" vType="Bus" vaporized=""/>
    <tripinfo id="VehicleFlowEastToSouth.0" depart="2.00" departLane="-1274_0" departPos="4.10" departSpeed="0.00" departDelay="2.00" arrival="179.00" arrivalLane="--1336#0_0" arrivalPos="122.12" arrivalSpeed="21.35" duration="177.00" routeLength="1342.10" waitSteps="54" rerouteNo="0" devices="tripinfo_VehicleFlowEastToSouth.0" vType="Vehicle" vaporized=""/>
    <tripinfo id="VehicleFlowWestToSouth.0" depart="0.00" departLane="-1324_0" departPos="4.10" departSpeed="0.00" departDelay="0.00" arrival="183.00" arrivalLane="--1336#0_0" arrivalPos="122.12" arrivalSpeed="21.87" duration="183.00" routeLength="1043.54" waitSteps="87" rerouteNo="0" devices="tripinfo_VehicleFlowWestToSouth.0" vType="Vehicle" vaporized=""/>
    <tripinfo id="VehicleFlowWestToSouth.1" depart="45.00" departLane="-1324_0" departPos="4.10" departSpeed="0.00" departDelay="0.00" arrival="187.00" arrivalLane="--1336#0_0" arrivalPos="122.12" arrivalSpeed="21.20" duration="142.00" routeLength="1043.54" waitSteps="40" rerouteNo="0" devices="tripinfo_VehicleFlowWestToSouth.1" vType="Vehicle" vaporized=""/>
    <tripinfo id="VehicleFlowWestToNorth.0" depart="2.00" departLane="-1328#0_0" departPos="4.10" departSpeed="0.00" departDelay="2.00" arrival="189.00" arrivalLane="-1288_0" arrivalPos="146.00" arrivalSpeed="20.85" duration="187.00" routeLength="1246.00" waitSteps="65" rerouteNo="0" devices="tripinfo_VehicleFlowWestToNorth.0" vType="Vehicle" vaporized=""/>
    <tripinfo id="VehicleFlowWestToSouth.2" depart="90.00" departLane="-1324_0" departPos="4.10" departSpeed="0.00" departDelay="0.00" arrival="191.00" arrivalLane="--1336#0_0" arrivalPos="122.12" arrivalSpeed="20.75" duration="101.00" routeLength="1043.54" waitSteps="1" rerouteNo="0" devices="tripinfo_VehicleFlowWestToSouth.2" vType="Vehicle" vaporized=""/>
    <tripinfo id="VehicleFlowNorthToWest.0" depart="67.00" departLane="--1288_0" departPos="4.10" departSpeed="0.00" departDelay="7.00" arrival="197.00" arrivalLane="-1326#2_0" arrivalPos="1003.38" arrivalSpeed="24.36" duration="130.00" routeLength="2223.35" waitSteps="10" rerouteNo="0" devices="tripinfo_VehicleFlowNorthToWest.0" vType="Vehicle" vaporized=""/>
    <tripinfo id="VehicleFlowNorthToSouth.0" depart="64.00" departLane="--1288_0" departPos="4.10" departSpeed="0.00" departDelay="4.00" arrival="198.00" arrivalLane="--1336#0_0" arrivalPos="122.12" arrivalSpeed="21.24" duration="134.00" routeLength="1015.63" waitSteps="38" rerouteNo="0" devices="tripinfo_VehicleFlowNorthToSouth.0" vType="Vehicle" vaporized=""/>
    <tripinfo id="VehicleFlowNorthToWest.1" depart="78.00" departLane="--1288_0" departPos="4.10" departSpeed="0.00" departDelay="-0.94" arrival="199.00" arrivalLane="-1326#2_0" arrivalPos="1003.38" arrivalSpeed="24.58" duration="121.00" routeLength="2223.35" waitSteps="0" rerouteNo="0" devices="tripinfo_VehicleFlowNorthToWest.1" vType="Vehicle" vaporized=""/>
    <tripinfo id="VehicleFlowEastToSouth.1" depart="45.00" departLane="-1274_0" departPos="4.10" departSpeed="0.00" departDelay="0.00" arrival="201.00" arrivalLane="--1336#0_0" arrivalPos="122.12" arrivalSpeed="20.64" duration="156.00" routeLength="1342.10" waitSteps="31" rerouteNo="0" devices="tripinfo_VehicleFlowEastToSouth.1" vType="Vehicle" vaporized=""/>
    <tripinfo id="VehicleFlowWestToNorth.1" depart="90.00" departLane="-1328#0_0" departPos="4.10" departSpeed="0.00" departDelay="0.00" arrival="220.00" arrivalLane="-1288_0" arrivalPos="146.00" arrivalSpeed="21.09" duration="130.00" routeLength="1246.00" waitSteps="11" rerouteNo="0" devices="tripinfo_VehicleFlowWestToNorth.1" vType="Vehicle" vaporized=""/>
    <tripinfo id="VehicleFlowSouthToEast.0" depart="55.00" departLane="-1336#0_0" departPos="4.10" departSpeed="0.00" departDelay="0.00" arrival="223.00" arrivalLane="-1282#1_1" arrivalPos="488.08" arrivalSpeed="12.60" duration="168.00" routeLength="1721.38" waitSteps="18" rerouteNo="0" devices="tripinfo_VehicleFlowSouthToEast.0" vType="Vehicle" vaporized=""/>
    <tripinfo id="VehicleFlowEastToWest.0" depart="4.00" departLane="-1274_0" departPos="4.10" departSpeed="0.00" departDelay="4.00" arrival="227.00" arrivalLane="-1326#2_0" arrivalPos="1003.38" arrivalSpeed="23.65" duration="223.00" routeLength="2549.82" waitSteps="64" rerouteNo="0" devices="tripinfo_VehicleFlowEastToWest.0" vType="Vehicle" vaporized=""/>
    <tripinfo id="VehicleFlowEastToWest_1.0" depart="0.00" departLane="-1280#0_0" departPos="4.10" departSpeed="0.00" departDelay="0.00" arrival="229.00" arrivalLane="-1326#2_1" arrivalPos="1003.38" arrivalSpeed="24.33" duration="229.00" routeLength="3034.54" waitSteps="28" rerouteNo="0" devices="tripinfo_VehicleFlowEastToWest_1.0" vType="Vehicle" vaporized=""/>
    <tripinfo id="VehicleFlowEastToWest_0.0" depart="0.00" departLane="-1354_0" departPos="4.10" departSpeed="0.00" departDelay="0.00" arrival="229.00" arrivalLane="-1326#2_0" arrivalPos="1003.38" arrivalSpeed="23.73" duration="229.00" routeLength="2451.04" waitSteps="74" rerouteNo="0" devices="tripinfo_VehicleFlowEastToWest_0.0" vType="Vehicle" vaporized=""/>
    <tripinfo id="VehicleFlowEastToWest_1.1" depart="10.00" departLane="-1280#0_0" departPos="4.10" departSpeed="0.00" departDelay="-0.84" arrival="231.00" arrivalLane="-1326#2_1" arrivalPos="1003.38" arrivalSpeed="24.48" duration="221.00" routeLength="3034.54" waitSteps="18" rerouteNo="0" devices="tripinfo_VehicleFlowEastToWest_1.1" vType="Vehicle" vaporized=""/>
    <tripinfo id="VehicleFlowEastToWest_0.3" depart="32.00" departLane="-1354_0" departPos="4.10" departSpeed="0.00" departDelay="-0.14" arrival="231.00" arrivalLane="-1326#2_0" arrivalPos="1003.38" arrivalSpeed="24.69" duration="199.00" routeLength="2451.04" waitSteps="36" rerouteNo="0" devices="tripinfo_VehicleFlowEastToWest_0.3" vType="Vehicle" vaporized=""/>
    <tripinfo id="VehicleFlowEastToWest_0.4" depart="42.00" departLane="-1354_0" departPos="4.10" departSpeed="0.00" departDelay="-0.86" arrival="232.00" arrivalLane="-1326#2_0" arrivalPos="1003.38" arrivalSpeed="23.41" duration="190.00" routeLength="2451.04" waitSteps="26" rerouteNo="0" devices="tripinfo_VehicleFlowEastToWest_0.4" vType="Vehicle" vaporized=""/>
    <tripinfo id="VehicleFlowEastToWest.1" depart="10.00" departLane="-1274_0" departPos="4.10" departSpeed="0.00" departDelay="-0.84" arrival="233.00" arrivalLane="-1326#2_1" arrivalPos="1003.38" arrivalSpeed="24.98" duration="223.00" routeLength="2549.82" waitSteps="56" rerouteNo="0" devices="tripinfo_VehicleFlowEastToWest.1" vType="Vehicle" vaporized=""/>
    <tripinfo id="VehicleFlowEastToWest_0.1" depart="15.00" departLane="-1354_0" departPos="4.10" departSpeed="0.00" departDelay="4.29" arrival="234.00" arrivalLane="-1326#2_0" arrivalPos="1003.38" arrivalSpeed="24.46" duration="219.00" routeLength="2451.04" waitSteps="52" rerouteNo="0" devices="tripinfo_VehicleFlowEastToWest_0.1" vType="Vehicle" vaporized=""/>
    <tripinfo id="VehicleFlowEastToWest.2" depart="21.00" departLane="-1274_0" departPos="4.10" departSpeed="0.00" departDelay="-0.69" arrival="235.00" arrivalLane="-1326#2_1" arrivalPos="1003.38" arrivalSpeed="24.64" duration="214.00" routeLength="2549.82" waitSteps="45" rerouteNo="0" devices="tripinfo_VehicleFlowEastToWest.2" vType="Vehicle" vaporized=""/>
    <tripinfo id="VehicleFlowEastToWest_0.2" depart="21.00" departLane="-1354_0" departPos="4.10" departSpeed="0.00" departDelay="-0.43" arrival="236.00" arrivalLane="-1326#2_0" arrivalPos="1003.38" arrivalSpeed="24.92" duration="215.00" routeLength="2451.04" waitSteps="46" rerouteNo="0" devices="tripinfo_VehicleFlowEastToWest_0.2" vType="Vehicle" vaporized=""/>
    <tripinfo id="VehicleFlowSouthToWest.0" depart="55.00" departLane="239331354_0" departPos="4.10" departSpeed="0.00" departDelay="0.00" arrival="237.00" arrivalLane="-1326#2_1" arrivalPos="1003.38" arrivalSpeed="23.77" duration="182.00" routeLength="1963.87" waitSteps="55" rerouteNo="0" devices="tripinfo_VehicleFlowSouthToWest.0" vType="Vehicle" vaporized=""/>
    <tripinfo id="VehicleFlowNorthToWest.2" depart="97.00" departLane="--1288_0" departPos="4.10" departSpeed="0.00" departDelay="-0.87" arrival="239.00" arrivalLane="-1326#2_1" arrivalPos="1003.38" arrivalSpeed="24.68" duration="142.00" routeLength="2223.35" waitSteps="7" rerouteNo="0" devices="tripinfo_VehicleFlowNorthToWest.2" vType="Vehicle" vaporized=""/>
    <tripinfo id="VehicleFlowNorthToWest.3" depart="116.00" departLane="--1288_0" departPos="4.10" departSpeed="0.00" departDelay="-0.81" arrival="240.00" arrivalLane="-1326#2_1" arrivalPos="1003.38" arrivalSpeed="24.59" duration="124.00" routeLength="2223.35" waitSteps="0" rerouteNo="0" devices="tripinfo_VehicleFlowNorthToWest.3" vType="Vehicle" vaporized=""/>
    <tripinfo id="VehicleFlowEastToWest_1.2" depart="21.00" departLane="-1280#0_0" departPos="4.10" departSpeed="0.00" departDelay="-0.69" arrival="242.00" arrivalLane="-1326#2_1" arrivalPos="1003.38" arrivalSpeed="24.54" duration="221.00" routeLength="3034.54" waitSteps="15" rerouteNo="0" devices="tripinfo_VehicleFlowEastToWest_1.2" vType="Vehicle" vaporized=""/>
    <tripinfo id="VehicleFlowWestToSouth.3" depart="135.00" departLane="-1324_0" departPos="4.10" departSpeed="0.00" departDelay="0.00" arrival="243.00" arrivalLane="--1336#0_0" arrivalPos="122.12" arrivalSpeed="21.14" duration="108.00" routeLength="1043.54" waitSteps="19" rerouteNo="0" devices="tripinfo_VehicleFlowWestToSouth.3" vType="Vehicle" vaporized=""/>
    <tripinfo id="VehicleFlowWestToEast.0" depart="0.00" departLane="-1328#0_0" departPos="4.10" departSpeed="0.00" departDelay="0.00" arrival="250.00" arrivalLane="-1282#1_1" arrivalPos="488.08" arrivalSpeed="12.24" duration="250.00" routeLength="1949.12" waitSteps="61" rerouteNo="0" devices="tripinfo_VehicleFlowWestToEast.0" vType="Vehicle" vaporized=""/>
    <tripinfo id="VehicleFlowEastToSouth.2" depart="90.00" departLane="-1274_0" departPos="4.10" departSpeed="0.00" departDelay="0.00" arrival="252.00" arrivalLane="--1336#0_0" arrivalPos="122.12" arrivalSpeed="20.73" duration="162.00" routeLength="1342.10" waitSteps="27" rerouteNo="0" devices="tripinfo_VehicleFlowEastToSouth.2" vType="Vehicle" vaporized=""/>
    <tripinfo id="VehicleFlowNorthToSouth.1" depart="140.00" departLane="--1288_0" departPos="4.10" departSpeed="0.00" departDelay="-0.91" arrival="254.00" arrivalLane="--1336#0_0" arrivalPos="122.12" arrivalSpeed="21.37" duration="114.00" routeLength="1015.63" waitSteps="25" rerouteNo="0" devices="tripinfo_VehicleFlowNorthToSouth.1" vType="Vehicle" vaporized=""/>
    <tripinfo id="VehicleFlowWestToEast_0.1" depart="30.00" departLane="229259796#0_0" departPos="4.10" departSpeed="0.00" departDelay="0.00" arrival="255.00" arrivalLane="-1282#1_1" arrivalPos="488.08" arrivalSpeed="12.69" duration="225.00" routeLength="1403.99" waitSteps="78" rerouteNo="0" devices="tripinfo_VehicleFlowWestToEast_0.1" vType="Vehicle" vaporized=""/>
    <tripinfo id="VehicleFlowWestToEast_0.0" depart="0.00" departLane="229259796#0_0" departPos="4.10" departSpeed="0.00" departDelay="0.00" arrival="260.00" arrivalLane="-1282#1_1" arrivalPos="488.08" arrivalSpeed="12.82" duration="260.00" routeLength="1403.99" waitSteps="107" rerouteNo="0" devices="tripinfo_VehicleFlowWestToEast_0.0" vType="Vehicle" vaporized=""/>
    <tripinfo id="VehicleFlowNorthToEast.0" depart="60.00" departLane="--1288_0" departPos="4.10" departSpeed="0.00" departDelay="0.00" arrival="264.00" arrivalLane="-1282#1_1" arrivalPos="488.08" arrivalSpeed="13.56" duration="204.00" routeLength="1640.74" waitSteps="36" rerouteNo="0" devices="tripinfo_VehicleFlowNorthToEast.0" vType="Vehicle" vaporized=""/>
    <tripinfo id="VehicleFlowEastToWest_1.3" depart="32.00" departLane="-1280#0_0" departPos="4.10" departSpeed="0.00" departDelay="-0.53" arrival="265.00" arrivalLane="-1326#2_1" arrivalPos="1003.38" arrivalSpeed="24.17" duration="233.00" routeLength="3034.54" waitSteps="27" rerouteNo="0" devices="tripinfo_VehicleFlowEastToWest_1.3" vType="Vehicle" vaporized=""/>
    <tripinfo id="VehicleFlowEastToWest.3" depart="32.00" departLane="-1274_0" departPos="4.10" departSpeed="0.00" departDelay="-0.53" arrival="265.00" arrivalLane="-1326#2_0" arrivalPos="1003.38" arrivalSpeed="24.07" duration="233.00" routeLength="2549.82" waitSteps="61" rerouteNo="0" devices="tripinfo_VehicleFlowEastToWest.3" vType="Vehicle" vaporized=""/>
    <tripinfo id="VehicleFlowEastToWest_0.8" depart="85.00" departLane="-1354_0" departPos="4.10" departSpeed="0.00" departDelay="-0.71" arrival="267.00" arrivalLane="-1326#2_1" arrivalPos="1003.38" arrivalSpeed="23.27" duration="182.00" routeLength="2451.04" waitSteps="22" rerouteNo="0" devices="tripinfo_VehicleFlowEastToWest_0.8" vType="Vehicle" vaporized=""/>
    <tripinfo id="VehicleFlowWestToEast_0.2" depart="60.00" departLane="229259796#0_0" departPos="4.10" departSpeed="0.00" departDelay="0.00" arrival="268.00" arrivalLane="-1282#1_1" arrivalPos="488.08" arrivalSpeed="12.86" duration="208.00" routeLength="1403.99" waitSteps="51" rerouteNo="0" devices="tripinfo_VehicleFlowWestToEast_0.2" vType="Vehicle" vaporized=""/>
    <tripinfo id="VehicleFlowEastToWest_0.5" depart="55.00" departLane="-1354_0" departPos="4.10" departSpeed="0.00" departDelay="1.43" arrival="269.00" arrivalLane="-1326#2_0" arrivalPos="1003.38" arrivalSpeed="23.75" duration="214.00" routeLength="2451.04" waitSteps="41" rerouteNo="0" devices="tripinfo_VehicleFlowEastToWest_0.5" vType="Vehicle" vaporized=""/>
    <tripinfo id="BusFlowWestEast0.1" depart="150.00" departLane="-240120122_0" departPos="6.10" departSpeed="0.00" departDelay="0.00" arrival="269.00" arrivalLane="--1356_0" arrivalPos="327.97" arrivalSpeed="5.54" duration="119.00" routeLength="695.43" waitSteps="7" rerouteNo="0" devices="tripinfo_BusFlowWestEast0.1" vType="Bus" vaporized=""/>
    <tripinfo id="VehicleFlowEastToWest.4" depart="43.00" departLane="-1274_0" departPos="4.10" departSpeed="0.00" departDelay="-0.37" arrival="270.00" arrivalLane="-1326#2_1" arrivalPos="1003.38" arrivalSpeed="24.49" duration="227.00" routeLength="2549.82" waitSteps="46" rerouteNo="0" devices="tripinfo_VehicleFlowEastToWest.4" vType="Vehicle" vaporized=""/>
    <tripinfo id="VehicleFlowEastToWest_1.4" depart="43.00" departLane="-1280#0_0" departPos="4.10" departSpeed="0.00" departDelay="-0.37" arrival="271.00" arrivalLane="-1326#2_1" arrivalPos="1003.38" arrivalSpeed="24.80" duration="228.00" routeLength="3034.54" waitSteps="17" rerouteNo="0" devices="tripinfo_VehicleFlowEastToWest_1.4" vType="Vehicle" vaporized=""/>
    <tripinfo id="VehicleFlowEastToWest_0.6" depart="64.00" departLane="-1354_0" departPos="4.10" departSpeed="0.00" departDelay="-0.28" arrival="271.00" arrivalLane="-1326#2_0" arrivalPos="1003.38" arrivalSpeed="24.41" duration="207.00" routeLength="2451.04" waitSteps="31" rerouteNo="0" devices="tripinfo_VehicleFlowEastToWest_0.6" vType="Vehicle" vaporized=""/>
    <tripinfo id="VehicleFlowEastToWest_0.7" depart="75.00" departLane="-1354_0" departPos="4.10" departSpeed="0.00" departDelay="0.00" arrival="273.00" arrivalLane="-1326#2_1" arrivalPos="1003.38" arrivalSpeed="24.90" duration="198.00" routeLength="2451.04" waitSteps="22" rerouteNo="0" devices="tripinfo_VehicleFlowEastToWest_0.7" vType="Vehicle" vaporized=""/>
    <tripinfo id="VehicleFlowWestToEast_0.3" depart="90.00" departLane="229259796#0_0" departPos="4.10" departSpeed="0.00" departDelay="0.00" arrival="273.00" arrivalLane="-1282#1_1" arrivalPos="488.08" arrivalSpeed="12.31" duration="183.00" routeLength="1403.99" waitSteps="28" rerouteNo="0" devices="tripinfo_VehicleFlowWestToEast_0.3" vType="Vehicle" vaporized=""/>
    <tripinfo id="VehicleFlowEastToWest.5" depart="54.00" departLane="-1274_0" departPos="4.10" departSpeed="0.00" departDelay="-0.22" arrival="273.00" arrivalLane="-1326#2_0" arrivalPos="1003.38" arrivalSpeed="24.72" duration="219.00" routeLength="2549.82" waitSteps="35" rerouteNo="0" devices="tripinfo_VehicleFlowEastToWest.5" vType="Vehicle" vaporized=""/>
    <tripinfo id="VehicleFlowNorthToWest.4" depart="135.00" departLane="--1288_0" departPos="4.10" departSpeed="0.00" departDelay="-0.74" arrival="275.00" arrivalLane="-1326#2_1" arrivalPos="1003.38" arrivalSpeed="24.53" duration="140.00" routeLength="2223.35" waitSteps="12" rerouteNo="0" devices="tripinfo_VehicleFlowNorthToWest.4" vType="Vehicle" vaporized=""/>
    <tripinfo id="VehicleFlowEastToWest.6" depart="65.00" departLane="-1274_0" departPos="4.10" departSpeed="0.00" departDelay="-0.06" arrival="275.00" arrivalLane="-1326#2_0" arrivalPos="1003.38" arrivalSpeed="24.13" duration="210.00" routeLength="2549.82" waitSteps="21" rerouteNo="0" devices="tripinfo_VehicleFlowEastToWest.6" vType="Vehicle" vaporized=""/>
    <tripinfo id="VehicleFlowEastToWest_1.5" depart="54.00" departLane="-1280#0_0" departPos="4.10" departSpeed="0.00" departDelay="-0.22" arrival="277.00" arrivalLane="-1326#2_1" arrivalPos="1003.38" arrivalSpeed="23.98" duration="223.00" routeLength="3034.54" waitSteps="17" rerouteNo="0" devices="tripinfo_VehicleFlowEastToWest_1.5" vType="Vehicle" vaporized=""/>
    <tripinfo id="VehicleFlowEastToWest.8" depart="86.00" departLane="-1274_0" departPos="4.10" departSpeed="0.00" departDelay="-0.74" arrival="277.00" arrivalLane="-1326#2_0" arrivalPos="1003.38" arrivalSpeed="23.95" duration="191.00" routeLength="2549.82" waitSteps="17" rerouteNo="0" devices="tripinfo_VehicleFlowEastToWest.8" vType="Vehicle" vaporized=""/>
    <tripinfo id="VehicleFlowWestToEast.1" depart="23.00" departLane="-1328#0_0" departPos="4.10" departSpeed="0.00" departDelay="-0.33" arrival="278.00" arrivalLane="-1282#1_1" arrivalPos="488.08" arrivalSpeed="13.68" duration="255.00" routeLength="1949.12" waitSteps="49" rerouteNo="0" devices="tripinfo_VehicleFlowWestToEast.1" vType="Vehicle" vaporized=""/>
    <tripinfo id="VehicleFlowEastToWest_1.7" depart="75.00" departLane="-1280#0_0" departPos="4.10" departSpeed="0.00" departDelay="-0.90" arrival="279.00" arrivalLane="-1326#2_1" arrivalPos="1003.38" arrivalSpeed="24.54" duration="204.00" routeLength="3034.54" waitSteps="0" rerouteNo="0" devices="tripinfo_VehicleFlowEastToWest_1.7" vType="Vehicle" vaporized=""/>
    <tripinfo id="VehicleFlowEastToWest.7" depart="75.00" departLane="-1274_0" departPos="4.10" departSpeed="0.00" departDelay="-0.90" arrival="279.00" arrivalLane="-1326#2_0" arrivalPos="1003.38" arrivalSpeed="24.40" duration="204.00" routeLength="2549.82" waitSteps="29" rerouteNo="0" devices="tripinfo_VehicleFlowEastToWest.7" vType="Vehicle" vaporized=""/>
    <tripinfo id="VehicleFlowEastToWest_0.9" depart="98.00" departLane="-1354_0" departPos="4.10" departSpeed="0.00" departDelay="1.57" arrival="281.00" arrivalLane="-1326#2_0" arrivalPos="1003.38" arrivalSpeed="24.96" duration="183.00" routeLength="2451.04" waitSteps="16" rerouteNo="0" devices="tripinfo_VehicleFlowEastToWest_0.9" vType="Vehicle" vaporized=""/>
    <tripinfo id="VehicleFlowEastToNorth.1" depart="150.00" departLane="-1274_0" departPos="4.10" departSpeed="0.00" departDelay="0.00" arrival="281.00" arrivalLane="-1288_0" arrivalPos="146.00" arrivalSpeed="21.49" duration="131.00" routeLength="1166.29" waitSteps="31" rerouteNo="0" devices="tripinfo_VehicleFlowEastToNorth.1" vType="Vehicle" vaporized=""/>
    <tripinfo id="VehicleFlowWestToEast_0.4" depart="120.00" departLane="229259796#0_0" departPos="4.10" departSpeed="0.00" departDelay="0.00" arrival="283.00" arrivalLane="-1282#1_1" arrivalPos="488.08" arrivalSpeed="13.59" duration="163.00" routeLength="1403.99" waitSteps="6" rerouteNo="0" devices="tripinfo_VehicleFlowWestToEast_0.4" vType="Vehicle" vaporized=""/>
    <tripinfo id="VehicleFlowWestToEast.2" depart="46.00" departLane="-1328#0_0" departPos="4.10" departSpeed="0.00" departDelay="-0.67" arrival="285.00" arrivalLane="-1282#1_1" arrivalPos="488.08" arrivalSpeed="12.47" duration="239.00" routeLength="1949.12" waitSteps="25" rerouteNo="0" devices="tripinfo_VehicleFlowWestToEast.2" vType="Vehicle" vaporized=""/>
    <tripinfo id="VehicleFlowWestToSouth.4" depart="180.00" departLane="-1324_0" departPos="4.10" departSpeed="0.00" departDelay="0.00" arrival="287.00" arrivalLane="--1336#0_0" arrivalPos="122.12" arrivalSpeed="21.59" duration="107.00" routeLength="1043.54" waitSteps="15" rerouteNo="0" devices="tripinfo_VehicleFlowWestToSouth.4" vType="Vehicle" vaporized=""/>
    <tripinfo id="VehicleFlowWestToEast.4" depart="93.00" departLane="-1328#0_0" departPos="4.10" departSpeed="0.00" departDelay="-0.33" arrival="290.00" arrivalLane="-1282#1_1" arrivalPos="488.08" arrivalSpeed="12.97" duration="197.00" routeLength="1949.12" waitSteps="14" rerouteNo="0" devices="tripinfo_VehicleFlowWestToEast.4" vType="Vehicle" vaporized=""/>
    <tripinfo id="VehicleFlowWestToEast.3" depart="70.00" departLane="-1328#0_0" departPos="4.10" departSpeed="0.00" departDelay="0.00" arrival="293.00" arrivalLane="-1282#1_1" arrivalPos="488.08" arrivalSpeed="12.73" duration="223.00" routeLength="1949.12" waitSteps="39" rerouteNo="0" devices="tripinfo_VehicleFlowWestToEast.3" vType="Vehicle" vaporized=""/>
    <tripinfo id="VehicleFlowWestToEast_0.5" depart="150.00" departLane="229259796#0_0" departPos="4.10" departSpeed="0.00" departDelay="0.00" arrival="297.00" arrivalLane="-1282#1_1" arrivalPos="488.08" arrivalSpeed="12.80" duration="147.00" routeLength="1403.99" waitSteps="12" rerouteNo="0" devices="tripinfo_VehicleFlowWestToEast_0.5" vType="Vehicle" vaporized=""/>
    <tripinfo id="VehicleFlowWestToEast_0.6" depart="180.00" departLane="229259796#0_0" departPos="4.10" departSpeed="0.00" departDelay="0.00" arrival="301.00" arrivalLane="-1282#1_1" arrivalPos="488.08" arrivalSpeed="12.73" duration="121.00" routeLength="1403.99" waitSteps="0" rerouteNo="0" devices="tripinfo_VehicleFlowWestToEast_0.6" vType="Vehicle" vaporized=""/>
    <tripinfo id="VehicleFlowEastToSouth.3" depart="135.00" departLane="-1274_0" departPos="4.10" departSpeed="0.00" departDelay="0.00" arrival="302.00" arrivalLane="--1336#0_0" arrivalPos="122.12" arrivalSpeed="21.13" duration="167.00" routeLength="1342.10" waitSteps="36" rerouteNo="0" devices="tripinfo_VehicleFlowEastToSouth.3" vType="Vehicle" vaporized=""/>
    <tripinfo id="VehicleFlowEastToWest.9" depart="97.00" departLane="-1274_0" departPos="4.10" departSpeed="0.00" departDelay="-0.59" arrival="303.00" arrivalLane="-1326#2_0" arrivalPos="1003.38" arrivalSpeed="24.50" duration="206.00" routeLength="2549.82" waitSteps="30" rerouteNo="0" devices="tripinfo_VehicleFlowEastToWest.9" vType="Vehicle" vaporized=""/>
    <tripinfo id="VehicleFlowEastToWest.10" depart="108.00" departLane="-1274_0" departPos="4.10" departSpeed="0.00" departDelay="-0.43" arrival="304.00" arrivalLane="-1326#2_1" arrivalPos="1003.38" arrivalSpeed="23.67" duration="196.00" routeLength="2549.82" waitSteps="22" rerouteNo="0" devices="tripinfo_VehicleFlowEastToWest.10" vType="Vehicle" vaporized=""/>
    <tripinfo id="VehicleFlowEastToWest_1.6" depart="65.00" departLane="-1280#0_0" departPos="4.10" departSpeed="0.00" departDelay="-0.06" arrival="306.00" arrivalLane="-1326#2_1" arrivalPos="1003.38" arrivalSpeed="23.88" duration="241.00" routeLength="3034.54" waitSteps="27" rerouteNo="0" devices="tripinfo_VehicleFlowEastToWest_1.6" vType="Vehicle" vaporized=""/>
    <tripinfo id="VehicleFlowEastToWest_0.11" depart="117.00" departLane="-1354_0" departPos="4.10" departSpeed="0.00" departDelay="-0.85" arrival="307.00" arrivalLane="-1326#2_1" arrivalPos="1003.38" arrivalSpeed="24.76" duration="190.00" routeLength="2451.04" waitSteps="18" rerouteNo="0" devices="tripinfo_VehicleFlowEastToWest_0.11" vType="Vehicle" vaporized=""/>
    <tripinfo id="VehicleFlowWestToEast.5" depart="116.00" departLane="-1328#0_0" departPos="4.10" departSpeed="0.00" departDelay="-0.67" arrival="307.00" arrivalLane="-1282#1_1" arrivalPos="488.08" arrivalSpeed="13.30" duration="191.00" routeLength="1949.12" waitSteps="14" rerouteNo="0" devices="tripinfo_VehicleFlowWestToEast.5" vType="Vehicle" vaporized=""/>
    <tripinfo id="VehicleFlowEastToWest_0.10" depart="107.00" departLane="-1354_0" departPos="4.10" departSpeed="0.00" departDelay="-0.14" arrival="307.00" arrivalLane="-1326#2_0" arrivalPos="1003.38" arrivalSpeed="24.77" duration="200.00" routeLength="2451.04" waitSteps="28" rerouteNo="0" devices="tripinfo_VehicleFlowEastToWest_0.10" vType="Vehicle" vaporized=""/>
    <tripinfo id="VehicleFlowNorthToWest.5" depart="154.00" departLane="--1288_0" departPos="4.10" departSpeed="0.00" departDelay="-0.68" arrival="309.00" arrivalLane="-1326#2_1" arrivalPos="1003.38" arrivalSpeed="24.09" duration="155.00" routeLength="2223.35" waitSteps="28" rerouteNo="0" devices="tripinfo_VehicleFlowNorthToWest.5" vType="Vehicle" vaporized=""/>
    <tripinfo id="VehicleFlowNorthToWest.6" depart="173.00" departLane="--1288_0" departPos="4.10" departSpeed="0.00" departDelay="-0.62" arrival="309.00" arrivalLane="-1326#2_0" arrivalPos="1003.38" arrivalSpeed="23.28" duration="136.00" routeLength="2223.35" waitSteps="6" rerouteNo="0" devices="tripinfo_VehicleFlowNorthToWest.6" vType="Vehicle" vaporized=""/>
    <tripinfo id="VehicleFlowWestToSouth.5" depart="225.00" departLane="-1324_0" departPos="4.10" departSpeed="0.00" departDelay="0.00" arrival="314.00" arrivalLane="--1336#0_0" arrivalPos="122.12" arrivalSpeed="20.62" duration="89.00" routeLength="1043.54" waitSteps="0" rerouteNo="0" devices="tripinfo_VehicleFlowWestToSouth.5" vType="Vehicle" vaporized=""/>
    <tripinfo id="VehicleFlowEastToWest_1.8" depart="86.00" departLane="-1280#0_0" departPos="4.10" departSpeed="0.00" departDelay="-0.74" arrival="316.00" arrivalLane="-1326#2_1" arrivalPos="1003.38" arrivalSpeed="24.10" duration="230.00" routeLength="3034.54" waitSteps="34" rerouteNo="0" devices="tripinfo_VehicleFlowEastToWest_1.8" vType="Vehicle" vaporized=""/>