<?xml version="1.0" encoding="UTF-8"?>

<!-- generated on mar. 08 avril 2014 14:48:44 CEST by SUMO gui Version 0.19.0
<?xml version="1.0" encoding="UTF-8"?>

<configuration xmlns:xsi="http://www.w3.org/2001/XMLSchema-instance" xsi:noNamespaceSchemaLocation="http://sumo-sim.org/xsd/sumo-gui.exeConfiguration.xsd">

    <input>
        <net-file value="data/RondPoint.net.xml"/>
        <route-files value="data/RondPoint.rou.xml,data/RondPointBus.rou.xml"/>
        <additional-files value="data/RondPoint.det.xml"/>
    </input>

    <output>
        <tripinfo-output value="data/RondPointtripinfo.out.xml"/>
        <save-state.prefix value="data/state"/>
    </output>

    <time>
        <begin value="0"/>
    </time>

    <processing>
        <time-to-teleport value="400"/>
        <lanechange.allow-swap value="true"/>
    </processing>

    <report>
        <no-step-log value="true"/>
    </report>

    <traci_server>
        <remote-port value="8815"/>
    </traci_server>

</configuration>
-->

<detector xmlns:xsi="http://www.w3.org/2001/XMLSchema-instance" xsi:noNamespaceSchemaLocation="http://sumo-sim.org/xsd/det_e1_file.xsd">
</detector>
