<?xml version="1.0" encoding="UTF-8"?>

<!-- generated on mar. 11 févr. 2014 17:49:30 CET by SUMO gui Version 0.19.0
<?xml version="1.0" encoding="UTF-8"?>

<configuration xmlns:xsi="http://www.w3.org/2001/XMLSchema-instance" xsi:noNamespaceSchemaLocation="http://sumo-sim.org/xsd/sumo-gui.exeConfiguration.xsd">

    <input>
        <net-file value="data/RondPoint.net.xml"/>
        <route-files value="data/RondPoint.rou.xml,data/RondPointBus.rou.xml"/>
        <additional-files value="data/RondPoint.det.xml"/>
    </input>

    <output>
        <tripinfo-output value="data/RondPointtripinfo.out.xml"/>
        <save-state.prefix value="data/state"/>
    </output>

    <time>
        <begin value="0"/>
    </time>

    <processing>
        <time-to-teleport value="400"/>
        <lanechange.allow-swap value="true"/>
    </processing>

    <report>
        <no-step-log value="true"/>
    </report>

    <traci_server>
        <remote-port value="8815"/>
    </traci_server>

</configuration>
-->

<tripinfos>
    <tripinfo id="VehicleFlowEastToNorth.0" depart="0.00" departLane="-1365_0" departPos="4.10" departSpeed="0.00" departDelay="0.00" arrival="46.00" arrivalLane="105490284_0" arrivalPos="108.94" arrivalSpeed="13.77" duration="46.00" routeLength="461.56" waitSteps="0" rerouteNo="0" devices="tripinfo_VehicleFlowEastToNorth.0" vType="Vehicle" vaporized=""/>
    <tripinfo id="VehicleFlowEastToWest.0" depart="0.00" departLane="-1365_2" departPos="4.10" departSpeed="0.00" departDelay="0.00" arrival="57.00" arrivalLane="105490271_0" arrivalPos="212.97" arrivalSpeed="13.78" duration="57.00" routeLength="594.04" waitSteps="0" rerouteNo="0" devices="tripinfo_VehicleFlowEastToWest.0" vType="Vehicle" vaporized=""/>
    <tripinfo id="VehicleFlowEastToWest.1" depart="4.00" departLane="-1365_0" departPos="4.10" departSpeed="0.00" departDelay="0.42" arrival="63.00" arrivalLane="105490271_0" arrivalPos="212.97" arrivalSpeed="13.66" duration="59.00" routeLength="594.04" waitSteps="0" rerouteNo="0" devices="tripinfo_VehicleFlowEastToWest.1" vType="Vehicle" vaporized=""/>
    <tripinfo id="VehicleFlowEastToWest.2" depart="7.00" departLane="-1365_1" departPos="4.10" departSpeed="0.00" departDelay="-0.17" arrival="65.00" arrivalLane="105490271_0" arrivalPos="212.97" arrivalSpeed="13.72" duration="58.00" routeLength="594.04" waitSteps="0" rerouteNo="0" devices="tripinfo_VehicleFlowEastToWest.2" vType="Vehicle" vaporized=""/>
    <tripinfo id="VehicleFlowEastToWest.3" depart="10.00" departLane="-1365_2" departPos="4.10" departSpeed="0.00" departDelay="-0.76" arrival="68.00" arrivalLane="105490271_0" arrivalPos="212.97" arrivalSpeed="13.85" duration="58.00" routeLength="594.04" waitSteps="0" rerouteNo="0" devices="tripinfo_VehicleFlowEastToWest.3" vType="Vehicle" vaporized=""/>
    <tripinfo id="BusFlowSouthNorth.0" depart="0.00" departLane="239331354_0" departPos="17.10" departSpeed="0.00" departDelay="0.00" arrival="75.00" arrivalLane="105490284_0" arrivalPos="108.94" arrivalSpeed="13.88" duration="75.00" routeLength="264.38" waitSteps="26" rerouteNo="0" devices="tripinfo_BusFlowSouthNorth.0" vType="Bus" vaporized=""/>
    <tripinfo id="BusFlowNorthSouth.0" depart="0.00" departLane="28925528_0" departPos="17.10" departSpeed="0.00" departDelay="0.00" arrival="76.00" arrivalLane="239331353_0" arrivalPos="131.82" arrivalSpeed="13.44" duration="76.00" routeLength="259.01" waitSteps="28" rerouteNo="0" devices="tripinfo_BusFlowNorthSouth.0" vType="Bus" vaporized=""/>
    <tripinfo id="VehicleFlowEastToSouth.0" depart="0.00" departLane="-1365_1" departPos="4.10" departSpeed="0.00" departDelay="0.00" arrival="79.00" arrivalLane="239331353_0" arrivalPos="131.82" arrivalSpeed="15.20" duration="79.00" routeLength="530.61" waitSteps="8" rerouteNo="0" devices="tripinfo_VehicleFlowEastToSouth.0" vType="Vehicle" vaporized=""/>
    <tripinfo id="BusFlowEastWest.0" depart="0.00" departLane="-1277_0" departPos="17.10" departSpeed="0.00" departDelay="0.00" arrival="115.00" arrivalLane="240120122_0" arrivalPos="328.53" arrivalSpeed="13.69" duration="115.00" routeLength="679.72" waitSteps="0" rerouteNo="0" devices="tripinfo_BusFlowEastWest.0" vType="Bus" vaporized=""/>
    <tripinfo id="VehicleFlowEastToWest.4" depart="14.00" departLane="-1365_0" departPos="4.10" departSpeed="0.00" departDelay="-0.34" arrival="139.00" arrivalLane="105490271_0" arrivalPos="212.97" arrivalSpeed="13.78" duration="125.00" routeLength="594.04" waitSteps="53" rerouteNo="0" devices="tripinfo_VehicleFlowEastToWest.4" vType="Vehicle" vaporized=""/>
    <tripinfo id="VehicleFlowEastToWest.5" depart="17.00" departLane="-1365_1" departPos="4.10" departSpeed="0.00" departDelay="-0.93" arrival="144.00" arrivalLane="105490271_0" arrivalPos="212.97" arrivalSpeed="13.71" duration="127.00" routeLength="594.04" waitSteps="51" rerouteNo="0" devices="tripinfo_VehicleFlowEastToWest.5" vType="Vehicle" vaporized=""/>
    <tripinfo id="VehicleFlowEastToWest.7" depart="25.00" departLane="-1365_0" departPos="4.10" departSpeed="0.00" departDelay="-0.09" arrival="147.00" arrivalLane="105490271_0" arrivalPos="212.97" arrivalSpeed="13.89" duration="122.00" routeLength="594.04" waitSteps="43" rerouteNo="0" devices="tripinfo_VehicleFlowEastToWest.7" vType="Vehicle" vaporized=""/>
    <tripinfo id="VehicleFlowEastToWest.8" depart="28.00" departLane="-1365_1" departPos="4.10" departSpeed="0.00" departDelay="-0.68" arrival="151.00" arrivalLane="105490271_0" arrivalPos="212.97" arrivalSpeed="13.55" duration="123.00" routeLength="594.04" waitSteps="42" rerouteNo="0" devices="tripinfo_VehicleFlowEastToWest.8" vType="Vehicle" vaporized=""/>
    <tripinfo id="VehicleFlowEastToWest.14" depart="53.00" departLane="-1365_2" departPos="4.10" departSpeed="0.00" departDelay="2.81" arrival="154.00" arrivalLane="105490271_1" arrivalPos="212.97" arrivalSpeed="13.65" duration="101.00" routeLength="594.04" waitSteps="18" rerouteNo="0" devices="tripinfo_VehicleFlowEastToWest.14" vType="Vehicle" vaporized=""/>
    <tripinfo id="VehicleFlowEastToWest.10" depart="35.00" departLane="-1365_0" departPos="4.10" departSpeed="0.00" departDelay="-0.85" arrival="203.00" arrivalLane="105490271_0" arrivalPos="212.97" arrivalSpeed="13.58" duration="168.00" routeLength="594.04" waitSteps="71" rerouteNo="0" devices="tripinfo_VehicleFlowEastToWest.10" vType="Vehicle" vaporized=""/>
    <tripinfo id="VehicleFlowEastToWest.11" depart="40.00" departLane="-1365_0" departPos="4.10" departSpeed="0.00" departDelay="0.56" arrival="204.00" arrivalLane="105490271_1" arrivalPos="212.97" arrivalSpeed="13.60" duration="164.00" routeLength="594.04" waitSteps="59" rerouteNo="0" devices="tripinfo_VehicleFlowEastToWest.11" vType="Vehicle" vaporized=""/>
    <tripinfo id="VehicleFlowEastToWest.15" depart="53.00" departLane="-1365_0" departPos="4.10" departSpeed="0.00" departDelay="-0.77" arrival="205.00" arrivalLane="105490271_0" arrivalPos="212.97" arrivalSpeed="13.80" duration="152.00" routeLength="594.04" waitSteps="48" rerouteNo="0" devices="tripinfo_VehicleFlowEastToWest.15" vType="Vehicle" vaporized=""/>
    <tripinfo id="VehicleFlowEastToWest.19" depart="68.00" departLane="-1365_2" departPos="4.10" departSpeed="0.00" departDelay="-0.11" arrival="207.00" arrivalLane="105490271_1" arrivalPos="212.97" arrivalSpeed="13.72" duration="139.00" routeLength="594.04" waitSteps="34" rerouteNo="0" devices="tripinfo_VehicleFlowEastToWest.19" vType="Vehicle" vaporized=""/>
    <tripinfo id="VehicleFlowEastToWest.17" depart="60.00" departLane="-1365_2" departPos="4.10" departSpeed="0.00" departDelay="-0.95" arrival="207.00" arrivalLane="105490271_0" arrivalPos="212.97" arrivalSpeed="13.56" duration="147.00" routeLength="594.04" waitSteps="46" rerouteNo="0" devices="tripinfo_VehicleFlowEastToWest.17" vType="Vehicle" vaporized=""/>
    <tripinfo id="VehicleFlowEastToWest.6" depart="21.00" departLane="-1365_1" departPos="4.10" departSpeed="0.00" departDelay="-0.51" arrival="209.00" arrivalLane="105490271_0" arrivalPos="212.97" arrivalSpeed="13.87" duration="188.00" routeLength="594.04" waitSteps="88" rerouteNo="0" devices="tripinfo_VehicleFlowEastToWest.6" vType="Vehicle" vaporized=""/>
    <tripinfo id="VehicleFlowEastToWest.20" depart="73.00" departLane="-1365_2" departPos="4.10" departSpeed="0.00" departDelay="1.30" arrival="211.00" arrivalLane="105490271_1" arrivalPos="212.97" arrivalSpeed="13.67" duration="138.00" routeLength="594.04" waitSteps="37" rerouteNo="0" devices="tripinfo_VehicleFlowEastToWest.20" vType="Vehicle" vaporized=""/>
    <tripinfo id="VehicleFlowEastToWest.18" depart="64.00" departLane="-1365_0" departPos="4.10" departSpeed="0.00" departDelay="-0.53" arrival="213.00" arrivalLane="105490271_0" arrivalPos="212.97" arrivalSpeed="13.77" duration="149.00" routeLength="594.04" waitSteps="51" rerouteNo="0" devices="tripinfo_VehicleFlowEastToWest.18" vType="Vehicle" vaporized=""/>
    <tripinfo id="VehicleFlowEastToWest.23" depart="82.00" departLane="-1365_2" departPos="4.10" departSpeed="0.00" departDelay="-0.45" arrival="218.00" arrivalLane="105490271_1" arrivalPos="212.97" arrivalSpeed="13.81" duration="136.00" routeLength="594.04" waitSteps="41" rerouteNo="0" devices="tripinfo_VehicleFlowEastToWest.23" vType="Vehicle" vaporized=""/>
    <tripinfo id="VehicleFlowEastToWest.9" depart="32.00" departLane="-1365_2" departPos="4.10" departSpeed="0.00" departDelay="-0.27" arrival="223.00" arrivalLane="105490271_0" arrivalPos="212.97" arrivalSpeed="13.89" duration="191.00" routeLength="594.04" waitSteps="76" rerouteNo="0" devices="tripinfo_VehicleFlowEastToWest.9" vType="Vehicle" vaporized=""/>
    <tripinfo id="VehicleFlowEastToWest.12" depart="43.00" departLane="-1365_1" departPos="4.10" departSpeed="0.00" departDelay="-0.02" arrival="225.00" arrivalLane="105490271_1" arrivalPos="212.97" arrivalSpeed="13.59" duration="182.00" routeLength="594.04" waitSteps="63" rerouteNo="0" devices="tripinfo_VehicleFlowEastToWest.12" vType="Vehicle" vaporized=""/>
    <tripinfo id="VehicleFlowEastToSouth.2" depart="90.00" departLane="-1365_2" departPos="4.10" departSpeed="0.00" departDelay="0.00" arrival="229.00" arrivalLane="239331353_0" arrivalPos="131.82" arrivalSpeed="14.39" duration="139.00" routeLength="530.61" waitSteps="39" rerouteNo="0" devices="tripinfo_VehicleFlowEastToSouth.2" vType="Vehicle" vaporized=""/>
    <tripinfo id="VehicleFlowEastToWest.21" depart="75.00" departLane="-1365_0" departPos="4.10" departSpeed="0.00" departDelay="-0.28" arrival="275.00" arrivalLane="105490271_0" arrivalPos="212.97" arrivalSpeed="13.81" duration="200.00" routeLength="594.04" waitSteps="87" rerouteNo="0" devices="tripinfo_VehicleFlowEastToWest.21" vType="Vehicle" vaporized=""/>
    <tripinfo id="VehicleFlowEastToWest.24" depart="86.00" departLane="-1365_0" departPos="4.10" departSpeed="0.00" departDelay="-0.04" arrival="277.00" arrivalLane="105490271_1" arrivalPos="212.97" arrivalSpeed="13.55" duration="191.00" routeLength="594.04" waitSteps="84" rerouteNo="0" devices="tripinfo_VehicleFlowEastToWest.24" vType="Vehicle" vaporized=""/>
    <tripinfo id="VehicleFlowEastToWest.28" depart="100.00" departLane="-1365_2" departPos="4.10" departSpeed="0.00" departDelay="-0.38" arrival="279.00" arrivalLane="105490271_0" arrivalPos="212.97" arrivalSpeed="13.77" duration="179.00" routeLength="594.04" waitSteps="80" rerouteNo="0" devices="tripinfo_VehicleFlowEastToWest.28" vType="Vehicle" vaporized=""/>
    <tripinfo id="VehicleFlowEastToSouth.1" depart="47.00" departLane="-1365_1" departPos="4.10" departSpeed="0.00" departDelay="2.00" arrival="280.00" arrivalLane="239331353_0" arrivalPos="131.82" arrivalSpeed="14.23" duration="233.00" routeLength="530.61" waitSteps="117" rerouteNo="0" devices="tripinfo_VehicleFlowEastToSouth.1" vType="Vehicle" vaporized=""/>
    <tripinfo id="VehicleFlowEastToWest.27" depart="96.00" departLane="-1365_1" departPos="4.10" departSpeed="0.00" departDelay="-0.80" arrival="282.00" arrivalLane="105490271_1" arrivalPos="212.97" arrivalSpeed="13.75" duration="186.00" routeLength="594.04" waitSteps="74" rerouteNo="0" devices="tripinfo_VehicleFlowEastToWest.27" vType="Vehicle" vaporized=""/>
    <tripinfo id="VehicleFlowEastToWest.31" depart="111.00" departLane="-1365_2" departPos="4.10" departSpeed="0.00" departDelay="-0.14" arrival="285.00" arrivalLane="105490271_1" arrivalPos="212.97" arrivalSpeed="13.88" duration="174.00" routeLength="594.04" waitSteps="63" rerouteNo="0" devices="tripinfo_VehicleFlowEastToWest.31" vType="Vehicle" vaporized=""/>
    <tripinfo id="VehicleFlowEastToWest.37" depart="132.00" departLane="-1365_1" departPos="4.10" departSpeed="0.00" departDelay="-0.65" arrival="290.00" arrivalLane="105490271_1" arrivalPos="212.97" arrivalSpeed="13.51" duration="158.00" routeLength="594.04" waitSteps="41" rerouteNo="0" devices="tripinfo_VehicleFlowEastToWest.37" vType="Vehicle" vaporized=""/>
    <tripinfo id="VehicleFlowEastToWest.26" depart="93.00" departLane="-1365_0" departPos="4.10" departSpeed="0.00" departDelay="-0.21" arrival="290.00" arrivalLane="105490271_0" arrivalPos="212.97" arrivalSpeed="13.88" duration="197.00" routeLength="594.04" waitSteps="86" rerouteNo="0" devices="tripinfo_VehicleFlowEastToWest.26" vType="Vehicle" vaporized=""/>
    <tripinfo id="VehicleFlowEastToWest.38" depart="136.00" departLane="-1365_2" departPos="4.10" departSpeed="0.00" departDelay="-0.23" arrival="292.00" arrivalLane="105490271_1" arrivalPos="212.97" arrivalSpeed="13.64" duration="156.00" routeLength="594.04" waitSteps="39" rerouteNo="0" devices="tripinfo_VehicleFlowEastToWest.38" vType="Vehicle" vaporized=""/>
    <tripinfo id="VehicleFlowEastToWest.25" depart="89.00" departLane="-1365_1" departPos="4.10" departSpeed="0.00" departDelay="-0.62" arrival="293.00" arrivalLane="105490271_0" arrivalPos="212.97" arrivalSpeed="13.56" duration="204.00" routeLength="594.04" waitSteps="82" rerouteNo="0" devices="tripinfo_VehicleFlowEastToWest.25" vType="Vehicle" vaporized=""/>
    <tripinfo id="VehicleFlowEastToWest.13" depart="53.00" departLane="-1365_1" departPos="4.10" departSpeed="0.00" departDelay="6.40" arrival="294.00" arrivalLane="105490271_1" arrivalPos="212.97" arrivalSpeed="13.55" duration="241.00" routeLength="594.04" waitSteps="124" rerouteNo="0" devices="tripinfo_VehicleFlowEastToWest.13" vType="Vehicle" vaporized=""/>
    <tripinfo id="VehicleFlowEastToWest.16" depart="57.00" departLane="-1365_1" departPos="4.10" departSpeed="0.00" departDelay="-0.36" arrival="297.00" arrivalLane="105490271_1" arrivalPos="212.97" arrivalSpeed="13.80" duration="240.00" routeLength="594.04" waitSteps="115" rerouteNo="0" devices="tripinfo_VehicleFlowEastToWest.16" vType="Vehicle" vaporized=""/>
    <tripinfo id="BusFlowEastWest.1" depart="225.00" departLane="-1277_0" departPos="17.10" departSpeed="0.00" departDelay="0.00" arrival="340.00" arrivalLane="240120122_0" arrivalPos="328.53" arrivalSpeed="13.51" duration="115.00" routeLength="679.72" waitSteps="0" rerouteNo="0" devices="tripinfo_BusFlowEastWest.1" vType="Bus" vaporized=""/>
    <tripinfo id="VehicleFlowEastToWest.30" depart="107.00" departLane="-1365_1" departPos="4.10" departSpeed="0.00" departDelay="-0.55" arrival="343.00" arrivalLane="105490271_0" arrivalPos="212.97" arrivalSpeed="13.53" duration="236.00" routeLength="594.04" waitSteps="128" rerouteNo="0" devices="tripinfo_VehicleFlowEastToWest.30" vType="Vehicle" vaporized=""/>
    <tripinfo id="VehicleFlowEastToWest.40" depart="143.00" departLane="-1365_1" departPos="4.10" departSpeed="0.00" departDelay="-0.40" arrival="343.00" arrivalLane="105490271_1" arrivalPos="212.97" arrivalSpeed="13.84" duration="200.00" routeLength="594.04" waitSteps="100" rerouteNo="0" devices="tripinfo_VehicleFlowEastToWest.40" vType="Vehicle" vaporized=""/>
    <tripinfo id="VehicleFlowEastToWest.45" depart="161.00" departLane="-1365_2" departPos="4.10" departSpeed="0.00" departDelay="-0.32" arrival="345.00" arrivalLane="105490271_1" arrivalPos="212.97" arrivalSpeed="13.76" duration="184.00" routeLength="594.04" waitSteps="81" rerouteNo="0" devices="tripinfo_VehicleFlowEastToWest.45" vType="Vehicle" vaporized=""/>
    <tripinfo id="VehicleFlowEastToNorth.1" depart="150.00" departLane="-1365_2" departPos="4.10" departSpeed="0.00" departDelay="0.00" arrival="345.00" arrivalLane="105490284_0" arrivalPos="108.94" arrivalSpeed="13.56" duration="195.00" routeLength="461.56" waitSteps="97" rerouteNo="0" devices="tripinfo_VehicleFlowEastToNorth.1" vType="Vehicle" vaporized=""/>
    <tripinfo id="VehicleFlowEastToWest.32" depart="114.00" departLane="-1365_0" departPos="4.10" departSpeed="0.00" departDelay="-0.72" arrival="346.00" arrivalLane="105490271_0" arrivalPos="212.97" arrivalSpeed="13.69" duration="232.00" routeLength="594.04" waitSteps="112" rerouteNo="0" devices="tripinfo_VehicleFlowEastToWest.32" vType="Vehicle" vaporized=""/>
    <tripinfo id="VehicleFlowEastToWest.35" depart="125.00" departLane="-1365_0" departPos="4.10" departSpeed="0.00" departDelay="-0.47" arrival="348.00" arrivalLane="105490271_0" arrivalPos="212.97" arrivalSpeed="13.65" duration="223.00" routeLength="594.04" waitSteps="104" rerouteNo="0" devices="tripinfo_VehicleFlowEastToWest.35" vType="Vehicle" vaporized=""/>
    <tripinfo id="VehicleFlowEastToWest.22" depart="78.00" departLane="-1365_1" departPos="4.10" departSpeed="0.00" departDelay="-0.87" arrival="350.00" arrivalLane="105490271_0" arrivalPos="212.97" arrivalSpeed="13.70" duration="272.00" routeLength="594.04" waitSteps="124" rerouteNo="0" devices="tripinfo_VehicleFlowEastToWest.22" vType="Vehicle" vaporized=""/>
    <tripinfo id="VehicleFlowEastToWest.43" depart="155.00" departLane="-1365_2" departPos="4.10" departSpeed="0.00" departDelay="0.84" arrival="353.00" arrivalLane="105490271_1" arrivalPos="212.97" arrivalSpeed="13.78" duration="198.00" routeLength="594.04" waitSteps="88" rerouteNo="0" devices="tripinfo_VehicleFlowEastToWest.43" vType="Vehicle" vaporized=""/>
    <tripinfo id="VehicleFlowEastToWest.36" depart="130.00" departLane="-1365_0" departPos="4.10" departSpeed="0.00" departDelay="0.94" arrival="356.00" arrivalLane="105490271_0" arrivalPos="212.97" arrivalSpeed="13.49" duration="226.00" routeLength="594.04" waitSteps="106" rerouteNo="0" devices="tripinfo_VehicleFlowEastToWest.36" vType="Vehicle" vaporized=""/>
    <tripinfo id="VehicleFlowEastToWest.47" depart="168.00" departLane="-1365_2" departPos="4.10" departSpeed="0.00" departDelay="-0.50" arrival="356.00" arrivalLane="105490271_1" arrivalPos="212.97" arrivalSpeed="13.68" duration="188.00" routeLength="594.04" waitSteps="71" rerouteNo="0" devices="tripinfo_VehicleFlowEastToWest.47" vType="Vehicle" vaporized=""/>
    <tripinfo id="VehicleFlowEastToWest.29" depart="103.00" departLane="-1365_0" departPos="4.10" departSpeed="0.00" departDelay="-0.97" arrival="359.00" arrivalLane="105490271_0" arrivalPos="212.97" arrivalSpeed="13.85" duration="256.00" routeLength="594.04" waitSteps="139" rerouteNo="0" devices="tripinfo_VehicleFlowEastToWest.29" vType="Vehicle" vaporized=""/>
    <tripinfo id="VehicleFlowEastToWest.48" depart="173.00" departLane="-1365_2" departPos="4.10" departSpeed="0.00" departDelay="0.92" arrival="359.00" arrivalLane="105490271_1" arrivalPos="212.97" arrivalSpeed="13.72" duration="186.00" routeLength="594.04" waitSteps="68" rerouteNo="0" devices="tripinfo_VehicleFlowEastToWest.48" vType="Vehicle" vaporized=""/>
    <tripinfo id="VehicleFlowEastToWest.39" depart="140.00" departLane="-1365_0" departPos="4.10" departSpeed="0.00" departDelay="0.19" arrival="362.00" arrivalLane="105490271_0" arrivalPos="212.97" arrivalSpeed="13.59" duration="222.00" routeLength="594.04" waitSteps="110" rerouteNo="0" devices="tripinfo_VehicleFlowEastToWest.39" vType="Vehicle" vaporized=""/>
    <tripinfo id="VehicleFlowEastToWest.49" depart="177.00" departLane="-1365_2" departPos="4.10" departSpeed="0.00" departDelay="1.34" arrival="363.00" arrivalLane="105490271_1" arrivalPos="212.97" arrivalSpeed="13.86" duration="186.00" routeLength="594.04" waitSteps="63" rerouteNo="0" devices="tripinfo_VehicleFlowEastToWest.49" vType="Vehicle" vaporized=""/>
    <tripinfo id="VehicleFlowEastToWest.44" depart="157.00" departLane="-1365_0" departPos="4.10" departSpeed="0.00" departDelay="-0.74" arrival="364.00" arrivalLane="105490271_0" arrivalPos="212.97" arrivalSpeed="13.87" duration="207.00" routeLength="594.04" waitSteps="105" rerouteNo="0" devices="tripinfo_VehicleFlowEastToWest.44" vType="Vehicle" vaporized=""/>
    <tripinfo id="VehicleFlowEastToWest.51" depart="182.00" departLane="-1365_2" departPos="4.10" departSpeed="0.00" departDelay="-0.84" arrival="414.00" arrivalLane="105490271_1" arrivalPos="212.97" arrivalSpeed="13.79" duration="232.00" routeLength="594.04" waitSteps="106" rerouteNo="0" devices="tripinfo_VehicleFlowEastToWest.51" vType="Vehicle" vaporized=""/>
    <tripinfo id="VehicleFlowEastToWest.46" depart="164.00" departLane="-1365_0" departPos="4.10" departSpeed="0.00" departDelay="-0.91" arrival="415.00" arrivalLane="105490271_0" arrivalPos="212.97" arrivalSpeed="13.86" duration="251.00" routeLength="594.04" waitSteps="130" rerouteNo="0" devices="tripinfo_VehicleFlowEastToWest.46" vType="Vehicle" vaporized=""/>
    <tripinfo id="VehicleFlowEastToWest.54" depart="193.00" departLane="-1365_2" departPos="4.10" departSpeed="0.00" departDelay="-0.59" arrival="417.00" arrivalLane="105490271_0" arrivalPos="212.97" arrivalSpeed="13.70" duration="224.00" routeLength="594.04" waitSteps="99" rerouteNo="0" devices="tripinfo_VehicleFlowEastToWest.54" vType="Vehicle" vaporized=""/>
    <tripinfo id="VehicleFlowEastToWest.57" depart="204.00" departLane="-1365_2" departPos="4.10" departSpeed="0.00" departDelay="-0.34" arrival="417.00" arrivalLane="105490271_1" arrivalPos="212.97" arrivalSpeed="13.74" duration="213.00" routeLength="594.04" waitSteps="93" rerouteNo="0" devices="tripinfo_VehicleFlowEastToWest.57" vType="Vehicle" vaporized=""/>
    <tripinfo id="VehicleFlowEastToWest.60" depart="215.00" departLane="-1365_2" departPos="4.10" departSpeed="0.00" departDelay="-0.10" arrival="420.00" arrivalLane="105490271_1" arrivalPos="212.97" arrivalSpeed="13.68" duration="205.00" routeLength="594.04" waitSteps="85" rerouteNo="0" devices="tripinfo_VehicleFlowEastToWest.60" vType="Vehicle" vaporized=""/>
    <tripinfo id="VehicleFlowEastToWest.50" depart="179.00" departLane="-1365_0" departPos="4.10" departSpeed="0.00" departDelay="-0.25" arrival="425.00" arrivalLane="105490271_0" arrivalPos="212.97" arrivalSpeed="13.85" duration="246.00" routeLength="594.04" waitSteps="112" rerouteNo="0" devices="tripinfo_VehicleFlowEastToWest.50" vType="Vehicle" vaporized=""/>
    <tripinfo id="VehicleFlowEastToWest.33" depart="118.00" departLane="-1365_1" departPos="4.10" departSpeed="0.00" departDelay="-0.31" arrival="427.00" arrivalLane="105490271_0" arrivalPos="212.97" arrivalSpeed="13.76" duration="309.00" routeLength="594.04" waitSteps="178" rerouteNo="0" devices="tripinfo_VehicleFlowEastToWest.33" vType="Vehicle" vaporized=""/>
    <tripinfo id="VehicleFlowEastToWest.34" depart="121.00" departLane="-1365_2" departPos="4.10" departSpeed="0.00" departDelay="-0.89" arrival="429.00" arrivalLane="105490271_0" arrivalPos="212.97" arrivalSpeed="13.73" duration="308.00" routeLength="594.04" waitSteps="170" rerouteNo="0" devices="tripinfo_VehicleFlowEastToWest.34" vType="Vehicle" vaporized=""/>
    <tripinfo id="VehicleFlowEastToWest.65" depart="233.00" departLane="-1365_2" departPos="4.10" departSpeed="0.00" departDelay="-0.03" arrival="429.00" arrivalLane="105490271_1" arrivalPos="212.97" arrivalSpeed="13.87" duration="196.00" routeLength="594.04" waitSteps="81" rerouteNo="0" devices="tripinfo_VehicleFlowEastToWest.65" vType="Vehicle" vaporized=""/>
    <tripinfo id="VehicleFlowEastToWest.52" depart="186.00" departLane="-1365_0" departPos="4.10" departSpeed="0.00" departDelay="-0.42" arrival="431.00" arrivalLane="105490271_1" arrivalPos="212.97" arrivalSpeed="13.71" duration="245.00" routeLength="594.04" waitSteps="113" rerouteNo="0" devices="tripinfo_VehicleFlowEastToWest.52" vType="Vehicle" vaporized=""/>
    <tripinfo id="VehicleFlowEastToWest.55" depart="197.00" departLane="-1365_0" departPos="4.10" departSpeed="0.00" departDelay="-0.18" arrival="437.00" arrivalLane="105490271_0" arrivalPos="212.97" arrivalSpeed="13.55" duration="240.00" routeLength="594.04" waitSteps="112" rerouteNo="0" devices="tripinfo_VehicleFlowEastToWest.55" vType="Vehicle" vaporized=""/>
    <tripinfo id="VehicleFlowEastToWest.68" depart="243.00" departLane="-1365_1" departPos="4.10" departSpeed="0.00" departDelay="-0.78" arrival="439.00" arrivalLane="105490271_1" arrivalPos="212.97" arrivalSpeed="13.66" duration="196.00" routeLength="594.04" waitSteps="72" rerouteNo="0" devices="tripinfo_VehicleFlowEastToWest.68" vType="Vehicle" vaporized=""/>
    <tripinfo id="VehicleFlowEastToSouth.3" depart="135.00" departLane="-1365_0" departPos="4.10" departSpeed="0.00" departDelay="0.00" arrival="453.00" arrivalLane="239331353_0" arrivalPos="131.82" arrivalSpeed="14.62" duration="318.00" routeLength="530.61" waitSteps="170" rerouteNo="0" devices="tripinfo_VehicleFlowEastToSouth.3" vType="Vehicle" vaporized=""/>
    <tripinfo id="VehicleFlowEastToSouth.5" depart="225.00" departLane="-1365_2" departPos="4.10" departSpeed="0.00" departDelay="0.00" arrival="455.00" arrivalLane="239331353_0" arrivalPos="131.82" arrivalSpeed="14.27" duration="230.00" routeLength="530.61" waitSteps="95" rerouteNo="0" devices="tripinfo_VehicleFlowEastToSouth.5" vType="Vehicle" vaporized=""/>
    <tripinfo id="VehicleFlowEastToWest.61" depart="218.00" departLane="-1365_0" departPos="4.10" departSpeed="0.00" departDelay="-0.69" arrival="483.00" arrivalLane="105490271_0" arrivalPos="212.97" arrivalSpeed="13.58" duration="265.00" routeLength="594.04" waitSteps="135" rerouteNo="0" devices="tripinfo_VehicleFlowEastToWest.61" vType="Vehicle" vaporized=""/>
    <tripinfo id="VehicleFlowEastToWest.69" depart="247.00" departLane="-1365_2" departPos="4.10" departSpeed="0.00" departDelay="-0.37" arrival="484.00" arrivalLane="105490271_1" arrivalPos="212.97" arrivalSpeed="13.51" duration="237.00" routeLength="594.04" waitSteps="107" rerouteNo="0" devices="tripinfo_VehicleFlowEastToWest.69" vType="Vehicle" vaporized=""/>
    <tripinfo id="VehicleFlowEastToWest.59" depart="211.00" departLane="-1365_1" departPos="4.10" departSpeed="0.00" departDelay="-0.51" arrival="485.00" arrivalLane="105490271_0" arrivalPos="212.97" arrivalSpeed="13.75" duration="274.00" routeLength="594.04" waitSteps="149" rerouteNo="0" devices="tripinfo_VehicleFlowEastToWest.59" vType="Vehicle" vaporized=""/>
    <tripinfo id="VehicleFlowEastToWest.64" depart="229.00" departLane="-1365_0" departPos="4.10" departSpeed="0.00" departDelay="-0.44" arrival="487.00" arrivalLane="105490271_0" arrivalPos="212.97" arrivalSpeed="13.78" duration="258.00" routeLength="594.04" waitSteps="126" rerouteNo="0" devices="tripinfo_VehicleFlowEastToWest.64" vType="Vehicle" vaporized=""/>
    <tripinfo id="VehicleFlowEastToWest.71" depart="254.00" departLane="-1365_2" departPos="4.10" departSpeed="0.00" departDelay="-0.53" arrival="487.00" arrivalLane="105490271_1" arrivalPos="212.97" arrivalSpeed="13.58" duration="233.00" routeLength="594.04" waitSteps="107" rerouteNo="0" devices="tripinfo_VehicleFlowEastToWest.71" vType="Vehicle" vaporized=""/>
    <tripinfo id="VehicleFlowEastToWest.41" depart="147.00" departLane="-1365_1" departPos="4.10" departSpeed="0.00" departDelay="0.01" arrival="490.00" arrivalLane="105490271_0" arrivalPos="212.97" arrivalSpeed="13.82" duration="343.00" routeLength="594.04" waitSteps="201" rerouteNo="0" devices="tripinfo_VehicleFlowEastToWest.41" vType="Vehicle" vaporized=""/>
    <tripinfo id="VehicleFlowEastToWest.73" depart="261.00" departLane="-1365_1" departPos="4.10" departSpeed="0.00" departDelay="-0.70" arrival="490.00" arrivalLane="105490271_1" arrivalPos="212.97" arrivalSpeed="13.74" duration="229.00" routeLength="594.04" waitSteps="101" rerouteNo="0" devices="tripinfo_VehicleFlowEastToWest.73" vType="Vehicle" vaporized=""/>
    <tripinfo id="VehicleFlowEastToWest.70" depart="250.00" departLane="-1365_1" departPos="4.10" departSpeed="0.00" departDelay="-0.95" arrival="493.00" arrivalLane="105490271_0" arrivalPos="212.97" arrivalSpeed="13.71" duration="243.00" routeLength="594.04" waitSteps="113" rerouteNo="0" devices="tripinfo_VehicleFlowEastToWest.70" vType="Vehicle" vaporized=""/>
    <tripinfo id="VehicleFlowEastToWest.42" depart="153.00" departLane="-1365_1" departPos="4.10" departSpeed="0.00" departDelay="2.43" arrival="495.00" arrivalLane="105490271_1" arrivalPos="212.97" arrivalSpeed="13.76" duration="342.00" routeLength="594.04" waitSteps="197" rerouteNo="0" devices="tripinfo_VehicleFlowEastToWest.42" vType="Vehicle" vaporized=""/>
    <tripinfo id="VehicleFlowEastToWest.72" depart="258.00" departLane="-1365_0" departPos="4.10" departSpeed="0.00" departDelay="-0.12" arrival="500.00" arrivalLane="105490271_0" arrivalPos="212.97" arrivalSpeed="13.59" duration="242.00" routeLength="594.04" waitSteps="118" rerouteNo="0" devices="tripinfo_VehicleFlowEastToWest.72" vType="Vehicle" vaporized=""/>
    <tripinfo id="VehicleFlowEastToWest.76" depart="273.00" departLane="-1365_2" departPos="4.10" departSpeed="0.00" departDelay="0.54" arrival="502.00" arrivalLane="105490271_1" arrivalPos="212.97" arrivalSpeed="13.67" duration="229.00" routeLength="594.04" waitSteps="103" rerouteNo="0" devices="tripinfo_VehicleFlowEastToWest.76" vType="Vehicle" vaporized=""/>