<?xml version="1.0" encoding="UTF-8"?>

<!-- generated on Mon Feb 24 11:59:22 2014 by SUMO sumo Version dev-SVN-r15641
<?xml version="1.0" encoding="UTF-8"?>

<configuration xmlns:xsi="http://www.w3.org/2001/XMLSchema-instance" xsi:noNamespaceSchemaLocation="http://sumo-sim.org/xsd/sumoConfiguration.xsd">

    <input>
        <net-file value="data/map.net.xml"/>
        <route-files value="data/map.rou.xml"/>
    </input>

    <output>
        <tripinfo-output value="data/maptripinfoLocal.out.xml"/>
        <save-state.prefix value="data/state"/>
    </output>

    <time>
        <begin value="25200"/>
        <end value="26100"/>
    </time>

    <processing>
        <route-steps value="200"/>
        <scale value="0.8"/>
        <time-to-teleport value="300"/>
        <lanechange.allow-swap value="true"/>
    </processing>

    <report>
        <verbose value="true"/>
        <no-warnings value="false"/>
        <no-step-log value="true"/>
    </report>

    <emissions>
        <device.hbefa.probability value="1"/>
    </emissions>

    <traci_server>
        <remote-port value="8814"/>
    </traci_server>

</configuration>
-->

<tripinfos>
    <tripinfo id="160035_160035_421" depart="25200.00" departLane="8225127_0" departPos="5.10" departSpeed="0.00" departDelay="0.00" arrival="25206.00" arrivalLane="8225127_0" arrivalPos="38.87" arrivalSpeed="11.33" duration="6.00" routeLength="33.77" waitSteps="0" rerouteNo="1" devices="tripinfo_160035_160035_421 hbefa_160035_160035_421" vType="DEFAULT_VEHTYPE" vaporized="">
        <emissions CO_abs="329.778441" CO2_abs="22606.149337" HC_abs="7.726662" PMx_abs="2.784749" NOx_abs="48.045335" fuel_abs="9.012721"/>
    </tripinfo>
    <tripinfo id="146065_146065_416" depart="25200.00" departLane="185767959#0_0" departPos="5.10" departSpeed="0.00" departDelay="0.00" arrival="25210.00" arrivalLane="9207798_1" arrivalPos="76.33" arrivalSpeed="17.62" duration="10.00" routeLength="90.29" waitSteps="0" rerouteNo="2" devices="tripinfo_146065_146065_416 hbefa_146065_146065_416" vType="DEFAULT_VEHTYPE" vaporized="">
        <emissions CO_abs="731.778516" CO2_abs="49107.146401" HC_abs="16.270780" PMx_abs="6.064789" NOx_abs="105.836062" fuel_abs="19.578264"/>
    </tripinfo>
    <tripinfo id="100948_100948_396" depart="25200.00" departLane="154743410#2_0" departPos="5.10" departSpeed="0.00" departDelay="0.00" arrival="25219.00" arrivalLane="9207798_1" arrivalPos="76.33" arrivalSpeed="17.71" duration="19.00" routeLength="167.61" waitSteps="0" rerouteNo="2" devices="tripinfo_100948_100948_396 hbefa_100948_100948_396" vType="DEFAULT_VEHTYPE" vaporized="">
        <emissions CO_abs="1249.197552" CO2_abs="82804.891729" HC_abs="27.404512" PMx_abs="10.538601" NOx_abs="179.764892" fuel_abs="33.013035"/>
    </tripinfo>
    <tripinfo id="135816_135816_411" depart="25200.00" departLane="23471158#6_0" departPos="5.10" departSpeed="0.00" departDelay="0.00" arrival="25219.00" arrivalLane="23471158#9_0" arrivalPos="213.75" arrivalSpeed="27.58" duration="19.00" routeLength="308.43" waitSteps="0" rerouteNo="1" devices="tripinfo_135816_135816_411 hbefa_135816_135816_411" vType="DEFAULT_VEHTYPE" vaporized="">
        <emissions CO_abs="2201.977796" CO2_abs="129103.313621" HC_abs="43.204852" PMx_abs="16.481219" NOx_abs="288.117805" fuel_abs="51.471568"/>
    </tripinfo>
    <tripinfo id="137129_137129_412" depart="25207.00" departLane="154755085#0_0" departPos="5.10" departSpeed="0.00" departDelay="0.00" arrival="25223.00" arrivalLane="154755085#1_0" arrivalPos="144.95" arrivalSpeed="13.32" duration="16.00" routeLength="164.24" waitSteps="0" rerouteNo="1" devices="tripinfo_137129_137129_412 hbefa_137129_137129_412" vType="DEFAULT_VEHTYPE" vaporized="">
        <emissions CO_abs="474.664678" CO2_abs="42005.747074" HC_abs="12.590072" PMx_abs="4.387300" NOx_abs="84.910859" fuel_abs="16.747047"/>
    </tripinfo>
    <tripinfo id="106746_106746_399" depart="25200.00" departLane="180723491_0" departPos="5.10" departSpeed="0.00" departDelay="0.00" arrival="25224.00" arrivalLane="154743410#0_0" arrivalPos="108.34" arrivalSpeed="9.44" duration="24.00" routeLength="223.23" waitSteps="0" rerouteNo="0" devices="tripinfo_106746_106746_399 hbefa_106746_106746_399" vType="DEFAULT_VEHTYPE" vaporized="">
        <emissions CO_abs="1482.304610" CO2_abs="94092.958402" HC_abs="31.759323" PMx_abs="12.386389" NOx_abs="206.678354" fuel_abs="37.513410"/>
    </tripinfo>
    <tripinfo id="106717_106717_399" depart="25200.00" departLane="-154755100#1_0" departPos="5.10" departSpeed="0.00" departDelay="0.00" arrival="25224.00" arrivalLane="-154755100#0_0" arrivalPos="171.42" arrivalSpeed="13.15" duration="24.00" routeLength="263.89" waitSteps="0" rerouteNo="1" devices="tripinfo_106717_106717_399 hbefa_106717_106717_399" vType="DEFAULT_VEHTYPE" vaporized="">
        <emissions CO_abs="526.855367" CO2_abs="51342.645481" HC_abs="14.697915" PMx_abs="5.040268" NOx_abs="102.007359" fuel_abs="20.469529"/>
    </tripinfo>
    <tripinfo id="71540_71540_383" depart="25200.00" departLane="150031262#0_0" departPos="5.10" departSpeed="0.00" departDelay="0.00" arrival="25229.00" arrivalLane="145575263_1" arrivalPos="260.32" arrivalSpeed="12.92" duration="29.00" routeLength="322.07" waitSteps="0" rerouteNo="0" devices="tripinfo_71540_71540_383 hbefa_71540_71540_383" vType="DEFAULT_VEHTYPE" vaporized="">
        <emissions CO_abs="742.945976" CO2_abs="62476.031837" HC_abs="18.828108" PMx_abs="6.783080" NOx_abs="128.165806" fuel_abs="24.908236"/>
    </tripinfo>
    <tripinfo id="168852_168852_425" depart="25220.00" departLane="160971552_0" departPos="5.10" departSpeed="0.00" departDelay="3.00" arrival="25229.00" arrivalLane="160971552_0" arrivalPos="96.86" arrivalSpeed="19.30" duration="9.00" routeLength="91.76" waitSteps="0" rerouteNo="1" devices="tripinfo_168852_168852_425 hbefa_168852_168852_425" vType="DEFAULT_VEHTYPE" vaporized="">
        <emissions CO_abs="978.844383" CO2_abs="58167.117538" HC_abs="20.040499" PMx_abs="8.043179" NOx_abs="130.347963" fuel_abs="23.190334"/>
    </tripinfo>
    <tripinfo id="95486_95486_394" depart="25200.00" departLane="23799989#0_0" departPos="5.10" departSpeed="0.00" departDelay="0.00" arrival="25231.00" arrivalLane="4400200_0" arrivalPos="166.23" arrivalSpeed="13.56" duration="31.00" routeLength="289.53" waitSteps="0" rerouteNo="1" devices="tripinfo_95486_95486_394 hbefa_95486_95486_394" vType="DEFAULT_VEHTYPE" vaporized="">
        <emissions CO_abs="562.784345" CO2_abs="54025.573934" HC_abs="15.974194" PMx_abs="5.336345" NOx_abs="107.023355" fuel_abs="21.539165"/>
    </tripinfo>
    <tripinfo id="145303_145303_416" depart="25208.00" departLane="-200671461_0" departPos="5.10" departSpeed="0.00" departDelay="0.00" arrival="25231.00" arrivalLane="-50061433_0" arrivalPos="60.25" arrivalSpeed="13.66" duration="23.00" routeLength="212.51" waitSteps="0" rerouteNo="1" devices="tripinfo_145303_145303_416 hbefa_145303_145303_416" vType="DEFAULT_VEHTYPE" vaporized="">
        <emissions CO_abs="1027.955788" CO2_abs="76574.741927" HC_abs="24.309654" PMx_abs="9.153914" NOx_abs="161.548605" fuel_abs="30.529169"/>
    </tripinfo>
    <tripinfo id="102085_102085_396" depart="25202.00" departLane="154743410#2_0" departPos="5.10" departSpeed="0.00" departDelay="2.00" arrival="25232.00" arrivalLane="9207798_1" arrivalPos="76.33" arrivalSpeed="16.18" duration="30.00" routeLength="167.61" waitSteps="7" rerouteNo="2" devices="tripinfo_102085_102085_396 hbefa_102085_102085_396" vType="DEFAULT_VEHTYPE" vaporized="">
        <emissions CO_abs="1038.432227" CO2_abs="74003.978455" HC_abs="24.325425" PMx_abs="8.841422" NOx_abs="156.605429" fuel_abs="29.504244"/>
    </tripinfo>
    <tripinfo id="116829_116829_404" depart="25200.00" departLane="4380937#2_0" departPos="5.10" departSpeed="0.00" departDelay="0.00" arrival="25232.00" arrivalLane="145575263_1" arrivalPos="260.32" arrivalSpeed="13.41" duration="32.00" routeLength="357.91" waitSteps="0" rerouteNo="2" devices="tripinfo_116829_116829_404 hbefa_116829_116829_404" vType="DEFAULT_VEHTYPE" vaporized="">
        <emissions CO_abs="982.804881" CO2_abs="81619.590773" HC_abs="24.480029" PMx_abs="9.058575" NOx_abs="168.445252" fuel_abs="32.540480"/>
    </tripinfo>
    <tripinfo id="136116_136116_411" depart="25219.00" departLane="154755085#0_0" departPos="5.10" departSpeed="0.00" departDelay="0.00" arrival="25235.00" arrivalLane="154755085#1_0" arrivalPos="144.95" arrivalSpeed="13.68" duration="16.00" routeLength="164.24" waitSteps="0" rerouteNo="1" devices="tripinfo_136116_136116_411 hbefa_136116_136116_411" vType="DEFAULT_VEHTYPE" vaporized="">
        <emissions CO_abs="507.707105" CO2_abs="44402.797048" HC_abs="13.301489" PMx_abs="4.569028" NOx_abs="89.896402" fuel_abs="17.702715"/>
    </tripinfo>
    <tripinfo id="117072_117072_404" depart="25216.00" departLane="185767958#1_0" departPos="5.10" departSpeed="0.00" departDelay="16.00" arrival="25241.00" arrivalLane="36590979#0-AddedOffRampEdge_0" arrivalPos="103.44" arrivalSpeed="21.65" duration="25.00" routeLength="430.18" waitSteps="0" rerouteNo="1" devices="tripinfo_117072_117072_404 hbefa_117072_117072_404" vType="DEFAULT_VEHTYPE" vaporized="">
        <emissions CO_abs="2115.134184" CO2_abs="131663.325911" HC_abs="42.655588" PMx_abs="16.577041" NOx_abs="290.685945" fuel_abs="52.492203"/>
    </tripinfo>
    <tripinfo id="106412_106412_399" depart="25200.00" departLane="4380937#0_0" departPos="5.10" departSpeed="0.00" departDelay="0.00" arrival="25241.00" arrivalLane="145575263_1" arrivalPos="260.32" arrivalSpeed="12.74" duration="41.00" routeLength="481.40" waitSteps="0" rerouteNo="2" devices="tripinfo_106412_106412_399 hbefa_106412_106412_399" vType="DEFAULT_VEHTYPE" vaporized="">
        <emissions CO_abs="1033.767883" CO2_abs="92789.707961" HC_abs="26.860713" PMx_abs="9.943108" NOx_abs="188.930654" fuel_abs="36.993839"/>
    </tripinfo>
    <tripinfo id="149330_149330_417" depart="25200.00" departLane="154755085#0_0" departPos="5.10" departSpeed="0.00" departDelay="0.00" arrival="25241.00" arrivalLane="4400311#0_0" arrivalPos="280.07" arrivalSpeed="7.46" duration="41.00" routeLength="299.36" waitSteps="0" rerouteNo="1" devices="tripinfo_149330_149330_417 hbefa_149330_149330_417" vType="DEFAULT_VEHTYPE" vaporized="">
        <emissions CO_abs="244.003140" CO2_abs="45691.939682" HC_abs="12.134123" PMx_abs="3.384329" NOx_abs="80.743897" fuel_abs="18.216671"/>
    </tripinfo>
    <tripinfo id="105046_105046_398" depart="25200.00" departLane="36454807#3-AddedOnRampEdge_0" departPos="5.10" departSpeed="0.00" departDelay="0.00" arrival="25241.00" arrivalLane="23471158#9_0" arrivalPos="213.75" arrivalSpeed="26.81" duration="41.00" routeLength="483.75" waitSteps="0" rerouteNo="3" devices="tripinfo_105046_105046_398 hbefa_105046_105046_398" vType="DEFAULT_VEHTYPE" vaporized="">
        <emissions CO_abs="3039.888044" CO2_abs="187632.353687" HC_abs="62.517619" PMx_abs="23.970951" NOx_abs="414.313817" fuel_abs="74.806170"/>
    </tripinfo>
    <tripinfo id="161230_161230_421" depart="25228.00" departLane="28557537#1_0" departPos="5.10" departSpeed="0.00" departDelay="0.00" arrival="25242.00" arrivalLane="28557537#1_0" arrivalPos="170.84" arrivalSpeed="18.36" duration="14.00" routeLength="165.74" waitSteps="0" rerouteNo="0" devices="tripinfo_161230_161230_421 hbefa_161230_161230_421" vType="DEFAULT_VEHTYPE" vaporized="">
        <emissions CO_abs="1421.249720" CO2_abs="84763.380437" HC_abs="28.835846" PMx_abs="11.561861" NOx_abs="189.942736" fuel_abs="33.793861"/>
    </tripinfo>
    <tripinfo id="87270_87270_391" depart="25203.00" departLane="36454807#3-AddedOnRampEdge_0" departPos="5.10" departSpeed="0.00" departDelay="3.00" arrival="25242.00" arrivalLane="23471158#9_0" arrivalPos="213.75" arrivalSpeed="27.12" duration="39.00" routeLength="496.50" waitSteps="0" rerouteNo="2" devices="tripinfo_87270_87270_391 hbefa_87270_87270_391" vType="DEFAULT_VEHTYPE" vaporized="">
        <emissions CO_abs="2744.757353" CO2_abs="175129.223923" HC_abs="56.892891" PMx_abs="21.337007" NOx_abs="382.443275" fuel_abs="69.821394"/>
    </tripinfo>
    <tripinfo id="130658_130658_409" depart="25218.00" departLane="23799644_0" departPos="5.10" departSpeed="0.00" departDelay="0.00" arrival="25243.00" arrivalLane="4400449#0_0" arrivalPos="32.06" arrivalSpeed="12.36" duration="25.00" routeLength="218.58" waitSteps="0" rerouteNo="1" devices="tripinfo_130658_130658_409 hbefa_130658_130658_409" vType="DEFAULT_VEHTYPE" vaporized="">
        <emissions CO_abs="632.913385" CO2_abs="55986.565489" HC_abs="17.084828" PMx_abs="5.840234" NOx_abs="112.675063" fuel_abs="22.320981"/>
    </tripinfo>
    <tripinfo id="147897_147897_416" depart="25223.00" departLane="23015529#0_0" departPos="5.10" departSpeed="0.00" departDelay="0.00" arrival="25244.00" arrivalLane="37866521#1_0" arrivalPos="52.00" arrivalSpeed="13.00" duration="21.00" routeLength="231.77" waitSteps="0" rerouteNo="1" devices="tripinfo_147897_147897_416 hbefa_147897_147897_416" vType="DEFAULT_VEHTYPE" vaporized="">
        <emissions CO_abs="455.948511" CO2_abs="44043.578792" HC_abs="12.670866" PMx_abs="4.437338" NOx_abs="87.815297" fuel_abs="17.559501"/>
    </tripinfo>
    <tripinfo id="148292_148292_417" depart="25200.00" departLane="69366484#0_0" departPos="5.10" departSpeed="0.00" departDelay="0.00" arrival="25245.00" arrivalLane="23493260#7_0" arrivalPos="59.96" arrivalSpeed="13.34" duration="45.00" routeLength="451.35" waitSteps="0" rerouteNo="1" devices="tripinfo_148292_148292_417 hbefa_148292_148292_417" vType="DEFAULT_VEHTYPE" vaporized="">
        <emissions CO_abs="970.630261" CO2_abs="87511.793629" HC_abs="25.929583" PMx_abs="9.254122" NOx_abs="176.799150" fuel_abs="34.889609"/>
    </tripinfo>
    <tripinfo id="147145_147145_416" depart="25200.00" departLane="154755073#4_0" departPos="5.10" departSpeed="0.00" departDelay="0.00" arrival="25246.00" arrivalLane="2837877_0" arrivalPos="210.13" arrivalSpeed="8.16" duration="46.00" routeLength="336.64" waitSteps="0" rerouteNo="1" devices="tripinfo_147145_147145_416 hbefa_147145_147145_416" vType="DEFAULT_VEHTYPE" vaporized="">
        <emissions CO_abs="329.514637" CO2_abs="54196.852946" HC_abs="14.750857" PMx_abs="4.179456" NOx_abs="97.330699" fuel_abs="21.607448"/>
    </tripinfo>
    <tripinfo id="114306_114306_402" depart="25200.00" departLane="36564599_0" departPos="5.10" departSpeed="0.00" departDelay="0.00" arrival="25248.00" arrivalLane="36564599_0" arrivalPos="101.75" arrivalSpeed="1.60" duration="48.00" routeLength="96.65" waitSteps="0" rerouteNo="1" devices="tripinfo_114306_114306_402 hbefa_114306_114306_402" vType="DEFAULT_VEHTYPE" vaporized="">
        <emissions CO_abs="140.473099" CO2_abs="21418.716648" HC_abs="8.259969" PMx_abs="1.142139" NOx_abs="33.794532" fuel_abs="8.539308"/>
    </tripinfo>
    <tripinfo id="106411_106411_399" depart="25204.00" departLane="154743410#2_0" departPos="5.10" departSpeed="0.00" departDelay="4.00" arrival="25249.00" arrivalLane="9207798_1" arrivalPos="76.33" arrivalSpeed="17.34" duration="45.00" routeLength="167.61" waitSteps="21" rerouteNo="2" devices="tripinfo_106411_106411_399 hbefa_106411_106411_399" vType="DEFAULT_VEHTYPE" vaporized="">
        <emissions CO_abs="1242.753584" CO2_abs="81917.349349" HC_abs="27.716037" PMx_abs="10.352862" NOx_abs="176.987002" fuel_abs="32.659182"/>
    </tripinfo>
    <tripinfo id="113896_113896_402" depart="25203.00" departLane="4380937#0_0" departPos="5.10" departSpeed="0.00" departDelay="3.00" arrival="25249.00" arrivalLane="145575263_1" arrivalPos="260.32" arrivalSpeed="12.60" duration="46.00" routeLength="481.40" waitSteps="2" rerouteNo="2" devices="tripinfo_113896_113896_402 hbefa_113896_113896_402" vType="DEFAULT_VEHTYPE" vaporized="">
        <emissions CO_abs="1093.980247" CO2_abs="98870.981894" HC_abs="28.942133" PMx_abs="10.286277" NOx_abs="199.816890" fuel_abs="39.418348"/>
    </tripinfo>
    <tripinfo id="122923_122923_406" depart="25200.00" departLane="36454807#1_0" departPos="5.10" departSpeed="0.00" departDelay="0.00" arrival="25249.00" arrivalLane="23471158#9_0" arrivalPos="213.75" arrivalSpeed="27.44" duration="49.00" routeLength="534.80" waitSteps="2" rerouteNo="2" devices="tripinfo_122923_122923_406 hbefa_122923_122923_406" vType="DEFAULT_VEHTYPE" vaporized="">
        <emissions CO_abs="2809.369195" CO2_abs="182111.109878" HC_abs="59.637517" PMx_abs="21.456948" NOx_abs="393.266430" fuel_abs="72.604967"/>
    </tripinfo>
    <tripinfo id="103997_103997_397" depart="25200.00" departLane="145474195#0_0" departPos="5.10" departSpeed="0.00" departDelay="0.00" arrival="25251.00" arrivalLane="145575263_1" arrivalPos="260.32" arrivalSpeed="12.86" duration="51.00" routeLength="582.15" waitSteps="0" rerouteNo="2" devices="tripinfo_103997_103997_397 hbefa_103997_103997_397" vType="DEFAULT_VEHTYPE" vaporized="">
        <emissions CO_abs="918.462321" CO2_abs="96345.879979" HC_abs="26.711633" PMx_abs="9.328951" NOx_abs="189.718825" fuel_abs="38.411633"/>
    </tripinfo>
    <tripinfo id="145302_145302_416" depart="25215.00" departLane="150031221_0" departPos="5.10" departSpeed="0.00" departDelay="0.00" arrival="25252.00" arrivalLane="150031221_0" arrivalPos="279.03" arrivalSpeed="8.32" duration="37.00" routeLength="273.93" waitSteps="0" rerouteNo="1" devices="tripinfo_145302_145302_416 hbefa_145302_145302_416" vType="DEFAULT_VEHTYPE" vaporized="">
        <emissions CO_abs="357.201282" CO2_abs="51468.195713" HC_abs="14.262502" PMx_abs="4.108832" NOx_abs="94.028776" fuel_abs="20.519574"/>
    </tripinfo>
    <tripinfo id="136568_136568_411" depart="25232.00" departLane="8225144#1_0" departPos="5.10" departSpeed="0.00" departDelay="0.00" arrival="25252.00" arrivalLane="23015778_0" arrivalPos="93.11" arrivalSpeed="13.34" duration="20.00" routeLength="223.78" waitSteps="0" rerouteNo="1" devices="tripinfo_136568_136568_411 hbefa_136568_136568_411" vType="DEFAULT_VEHTYPE" vaporized="">
        <emissions CO_abs="515.242611" CO2_abs="44977.111909" HC_abs="13.296859" PMx_abs="4.884584" NOx_abs="91.800990" fuel_abs="17.931686"/>
    </tripinfo>
    <tripinfo id="145277_145277_416" depart="25203.00" departLane="145474195#0_0" departPos="5.10" departSpeed="0.00" departDelay="3.00" arrival="25253.00" arrivalLane="145575263_1" arrivalPos="260.32" arrivalSpeed="13.41" duration="50.00" routeLength="582.15" waitSteps="0" rerouteNo="2" devices="tripinfo_145277_145277_416 hbefa_145277_145277_416" vType="DEFAULT_VEHTYPE" vaporized="">
        <emissions CO_abs="985.836503" CO2_abs="101437.606359" HC_abs="28.126142" PMx_abs="9.740315" NOx_abs="200.446471" fuel_abs="40.441629"/>
    </tripinfo>
    <tripinfo id="108143_108143_400" depart="25221.00" departLane="23799644_0" departPos="5.10" departSpeed="0.00" departDelay="0.00" arrival="25253.00" arrivalLane="64487982#4_0" arrivalPos="68.97" arrivalSpeed="7.15" duration="32.00" routeLength="255.49" waitSteps="0" rerouteNo="1" devices="tripinfo_108143_108143_400 hbefa_108143_108143_400" vType="DEFAULT_VEHTYPE" vaporized="">
        <emissions CO_abs="500.753599" CO2_abs="54255.172035" HC_abs="15.771193" PMx_abs="4.961965" NOx_abs="104.338704" fuel_abs="21.630702"/>
    </tripinfo>
    <tripinfo id="119400_119400_405" depart="25212.00" departLane="154743410#1_0" departPos="5.10" departSpeed="0.00" departDelay="12.00" arrival="25256.00" arrivalLane="187965761#0_0" arrivalPos="97.49" arrivalSpeed="7.64" duration="44.00" routeLength="355.85" waitSteps="0" rerouteNo="2" devices="tripinfo_119400_119400_405 hbefa_119400_119400_405" vType="DEFAULT_VEHTYPE" vaporized="">
        <emissions CO_abs="836.649143" CO2_abs="73863.957465" HC_abs="22.639178" PMx_abs="7.773800" NOx_abs="148.590182" fuel_abs="29.448420"/>
    </tripinfo>
    <tripinfo id="149028_149028_417" depart="25233.00" departLane="-200671461_0" departPos="5.10" departSpeed="0.00" departDelay="0.00" arrival="25258.00" arrivalLane="-22873531#1_0" arrivalPos="92.66" arrivalSpeed="12.84" duration="25.00" routeLength="244.92" waitSteps="0" rerouteNo="1" devices="tripinfo_149028_149028_417 hbefa_149028_149028_417" vType="DEFAULT_VEHTYPE" vaporized="">
        <emissions CO_abs="969.706275" CO2_abs="72477.294130" HC_abs="23.015539" PMx_abs="8.517152" NOx_abs="152.502773" fuel_abs="28.895580"/>
    </tripinfo>
    <tripinfo id="155268_155268_420" depart="25200.00" departLane="150039002#2_0" departPos="5.10" departSpeed="0.00" departDelay="0.00" arrival="25258.00" arrivalLane="36590979#4_0" arrivalPos="41.97" arrivalSpeed="21.57" duration="58.00" routeLength="538.03" waitSteps="14" rerouteNo="0" devices="tripinfo_155268_155268_420 hbefa_155268_155268_420" vType="DEFAULT_VEHTYPE" vaporized="">
        <emissions CO_abs="2082.300484" CO2_abs="145217.925271" HC_abs="45.814798" PMx_abs="17.436870" NOx_abs="311.577350" fuel_abs="57.896189"/>
    </tripinfo>
    <tripinfo id="109590_109590_401" depart="25203.00" departLane="150031205#1_0" departPos="5.10" departSpeed="0.00" departDelay="3.00" arrival="25261.00" arrivalLane="145575263_1" arrivalPos="260.32" arrivalSpeed="13.69" duration="58.00" routeLength="678.67" waitSteps="0" rerouteNo="2" devices="tripinfo_109590_109590_401 hbefa_109590_109590_401" vType="DEFAULT_VEHTYPE" vaporized="">
        <emissions CO_abs="1480.739569" CO2_abs="131759.769037" HC_abs="38.177002" PMx_abs="14.021728" NOx_abs="268.621335" fuel_abs="52.530608"/>
    </tripinfo>
    <tripinfo id="116049_116049_403" depart="25206.00" departLane="150031205#1_0" departPos="5.10" departSpeed="0.00" departDelay="6.00" arrival="25265.00" arrivalLane="145575263_1" arrivalPos="260.32" arrivalSpeed="12.98" duration="59.00" routeLength="678.67" waitSteps="0" rerouteNo="2" devices="tripinfo_116049_116049_403 hbefa_116049_116049_403" vType="DEFAULT_VEHTYPE" vaporized="">
        <emissions CO_abs="1351.553434" CO2_abs="129244.213688" HC_abs="36.485970" PMx_abs="13.485212" NOx_abs="260.225861" fuel_abs="51.527695"/>
    </tripinfo>
    <tripinfo id="174347_174347_427" depart="25256.00" departLane="23015778_0" departPos="5.10" departSpeed="0.00" departDelay="0.00" arrival="25266.00" arrivalLane="23015778_0" arrivalPos="93.11" arrivalSpeed="13.83" duration="10.00" routeLength="88.01" waitSteps="0" rerouteNo="1" devices="tripinfo_174347_174347_427 hbefa_174347_174347_427" vType="DEFAULT_VEHTYPE" vaporized="">
        <emissions CO_abs="441.241061" CO2_abs="34868.178135" HC_abs="10.936016" PMx_abs="3.873925" NOx_abs="72.109973" fuel_abs="13.901406"/>
    </tripinfo>
    <tripinfo id="150894_150894_418" depart="25239.00" departLane="-175607927#0_0" departPos="5.10" departSpeed="0.00" departDelay="0.00" arrival="25267.00" arrivalLane="4400305_1" arrivalPos="163.40" arrivalSpeed="12.86" duration="28.00" routeLength="301.08" waitSteps="0" rerouteNo="1" devices="tripinfo_150894_150894_418 hbefa_150894_150894_418" vType="DEFAULT_VEHTYPE" vaporized="">
        <emissions CO_abs="775.281178" CO2_abs="74027.542834" HC_abs="21.245398" PMx_abs="7.553850" NOx_abs="148.275897" fuel_abs="29.513649"/>
    </tripinfo>
    <tripinfo id="116728_116728_404" depart="25208.00" departLane="150031205#1_0" departPos="5.10" departSpeed="0.00" departDelay="8.00" arrival="25268.00" arrivalLane="145575263_1" arrivalPos="260.32" arrivalSpeed="13.83" duration="60.00" routeLength="678.67" waitSteps="0" rerouteNo="2" devices="tripinfo_116728_116728_404 hbefa_116728_116728_404" vType="DEFAULT_VEHTYPE" vaporized="">
        <emissions CO_abs="1393.764806" CO2_abs="127632.688437" HC_abs="36.962461" PMx_abs="13.219366" NOx_abs="257.837406" fuel_abs="50.885202"/>
    </tripinfo>
    <tripinfo id="141739_141739_415" depart="25200.00" departLane="23471151#1_0" departPos="5.10" departSpeed="0.00" departDelay="0.00" arrival="25268.00" arrivalLane="8225102_0" arrivalPos="87.82" arrivalSpeed="7.53" duration="68.00" routeLength="736.52" waitSteps="0" rerouteNo="1" devices="tripinfo_141739_141739_415 hbefa_141739_141739_415" vType="DEFAULT_VEHTYPE" vaporized="">
        <emissions CO_abs="2318.115264" CO2_abs="183341.202493" HC_abs="55.821696" PMx_abs="20.749810" NOx_abs="382.242840" fuel_abs="73.095332"/>
    </tripinfo>
    <tripinfo id="140838_140838_414" depart="25200.00" departLane="165511531#1_0" departPos="5.10" departSpeed="0.00" departDelay="0.00" arrival="25269.00" arrivalLane="23493260#7_0" arrivalPos="59.96" arrivalSpeed="13.61" duration="69.00" routeLength="689.80" waitSteps="0" rerouteNo="1" devices="tripinfo_140838_140838_414 hbefa_140838_140838_414" vType="DEFAULT_VEHTYPE" vaporized="">
        <emissions CO_abs="1257.636206" CO2_abs="132844.901988" HC_abs="37.281029" PMx_abs="12.835395" NOx_abs="260.463103" fuel_abs="52.963228"/>
    </tripinfo>
    <tripinfo id="150644_150644_418" depart="25232.00" departLane="-69366482#2_0" departPos="5.10" departSpeed="0.00" departDelay="0.00" arrival="25270.00" arrivalLane="37866521#1_0" arrivalPos="52.00" arrivalSpeed="13.88" duration="38.00" routeLength="401.29" waitSteps="0" rerouteNo="1" devices="tripinfo_150644_150644_418 hbefa_150644_150644_418" vType="DEFAULT_VEHTYPE" vaporized="">
        <emissions CO_abs="612.839831" CO2_abs="71962.889830" HC_abs="19.484063" PMx_abs="6.433018" NOx_abs="138.312894" fuel_abs="28.690507"/>
    </tripinfo>
    <tripinfo id="142640_142640_415" depart="25200.00" departLane="8096212#1_0" departPos="5.10" departSpeed="0.00" departDelay="0.00" arrival="25272.00" arrivalLane="23493260#7_0" arrivalPos="59.96" arrivalSpeed="13.53" duration="72.00" routeLength="713.59" waitSteps="0" rerouteNo="1" devices="tripinfo_142640_142640_415 hbefa_142640_142640_415" vType="DEFAULT_VEHTYPE" vaporized="">
        <emissions CO_abs="1383.503867" CO2_abs="142614.090733" HC_abs="40.071637" PMx_abs="14.096144" NOx_abs="281.293160" fuel_abs="56.858055"/>
    </tripinfo>
    <tripinfo id="128373_128373_408" depart="25239.00" departLane="22873499#0_0" departPos="5.10" departSpeed="0.00" departDelay="0.00" arrival="25272.00" arrivalLane="-22873540#5_0" arrivalPos="187.63" arrivalSpeed="13.29" duration="33.00" routeLength="370.16" waitSteps="0" rerouteNo="1" devices="tripinfo_128373_128373_408 hbefa_128373_128373_408" vType="DEFAULT_VEHTYPE" vaporized="">
        <emissions CO_abs="979.083845" CO2_abs="83643.489528" HC_abs="24.798012" PMx_abs="9.177106" NOx_abs="171.775413" fuel_abs="33.347379"/>
    </tripinfo>
    <tripinfo id="157577_157577_421" depart="25203.00" departLane="-165515969#3_0" departPos="5.10" departSpeed="0.00" departDelay="3.00" arrival="25273.00" arrivalLane="37866521#1_0" arrivalPos="52.00" arrivalSpeed="13.41" duration="70.00" routeLength="837.58" waitSteps="0" rerouteNo="2" devices="tripinfo_157577_157577_421 hbefa_157577_157577_421" vType="DEFAULT_VEHTYPE" vaporized="">
        <emissions CO_abs="2757.974242" CO2_abs="204790.546986" HC_abs="63.430243" PMx_abs="23.284110" NOx_abs="431.658371" fuel_abs="81.646883"/>
    </tripinfo>
    <tripinfo id="147486_147486_416" depart="25200.00" departLane="28889303#0_0" departPos="5.10" departSpeed="0.00" departDelay="0.00" arrival="25274.00" arrivalLane="154743410#1_0" arrivalPos="130.79" arrivalSpeed="13.48" duration="74.00" routeLength="551.71" waitSteps="11" rerouteNo="2" devices="tripinfo_147486_147486_416 hbefa_147486_147486_416" vType="DEFAULT_VEHTYPE" vaporized="">
        <emissions CO_abs="1899.673536" CO2_abs="155654.520955" HC_abs="47.971166" PMx_abs="17.265962" NOx_abs="319.932579" fuel_abs="62.057061"/>
    </tripinfo>
    <tripinfo id="158501_158501_421" depart="25223.00" departLane="-37866521#1_0" departPos="5.10" departSpeed="0.00" departDelay="0.00" arrival="25276.00" arrivalLane="-8225138_0" arrivalPos="91.73" arrivalSpeed="13.60" duration="53.00" routeLength="579.05" waitSteps="0" rerouteNo="1" devices="tripinfo_158501_158501_421 hbefa_158501_158501_421" vType="DEFAULT_VEHTYPE" vaporized="">
        <emissions CO_abs="1437.504698" CO2_abs="122041.684905" HC_abs="36.232839" PMx_abs="13.342418" NOx_abs="250.765143" fuel_abs="48.656150"/>
    </tripinfo>
    <tripinfo id="133563_133563_410" depart="25250.00" departLane="4400448_0" departPos="5.10" departSpeed="0.00" departDelay="0.00" arrival="25277.00" arrivalLane="4400448_0" arrivalPos="197.56" arrivalSpeed="8.27" duration="27.00" routeLength="192.46" waitSteps="0" rerouteNo="0" devices="tripinfo_133563_133563_410 hbefa_133563_133563_410" vType="DEFAULT_VEHTYPE" vaporized="">
        <emissions CO_abs="245.323639" CO2_abs="33144.369487" HC_abs="9.378280" PMx_abs="2.744667" NOx_abs="60.954373" fuel_abs="13.214148"/>
    </tripinfo>
    <tripinfo id="104593_104593_397" depart="25203.00" departLane="154743410#1_0" departPos="5.10" departSpeed="0.00" departDelay="3.00" arrival="25279.00" arrivalLane="9207798_1" arrivalPos="76.33" arrivalSpeed="17.47" duration="76.00" routeLength="615.67" waitSteps="10" rerouteNo="2" devices="tripinfo_104593_104593_397 hbefa_104593_104593_397" vType="DEFAULT_VEHTYPE" vaporized="">
        <emissions CO_abs="2406.148098" CO2_abs="178830.096622" HC_abs="56.420613" PMx_abs="20.961857" NOx_abs="377.068358" fuel_abs="71.296811"/>
    </tripinfo>
    <tripinfo id="145984_145984_416" depart="25263.00" departLane="4400462#1_0" departPos="5.10" departSpeed="0.00" departDelay="0.00" arrival="25279.00" arrivalLane="-32930555#2_0" arrivalPos="90.79" arrivalSpeed="13.46" duration="16.00" routeLength="147.47" waitSteps="0" rerouteNo="1" devices="tripinfo_145984_145984_416 hbefa_145984_145984_416" vType="DEFAULT_VEHTYPE" vaporized="">
        <emissions CO_abs="642.707721" CO2_abs="50512.146320" HC_abs="15.835782" PMx_abs="5.744116" NOx_abs="104.866177" fuel_abs="20.138415"/>
    </tripinfo>