<?xml version="1.0" encoding="UTF-8"?>

<!-- generated on Thu Apr 17 19:35:15 2014 by SUMO sumo Version 0.19.0
<?xml version="1.0" encoding="UTF-8"?>

<configuration xmlns:xsi="http://www.w3.org/2001/XMLSchema-instance" xsi:noNamespaceSchemaLocation="http://sumo-sim.org/xsd/sumoConfiguration.xsd">

    <input>
        <net-file value="data/map.net.xml"/>
        <route-files value="data/map.rou.xml"/>
    </input>

    <output>
        <tripinfo-output value="data/maptripinfoLocal.out.xml"/>
        <save-state.prefix value="data/state"/>
    </output>

    <time>
        <begin value="27000"/>
        <end value="27900"/>
    </time>

    <processing>
        <route-steps value="200"/>
        <scale value="0.8"/>
        <time-to-teleport value="300"/>
        <lanechange.allow-swap value="true"/>
    </processing>

    <report>
        <verbose value="true"/>
        <no-warnings value="true"/>
        <no-step-log value="true"/>
    </report>

    <emissions>
        <device.hbefa.probability value="1"/>
    </emissions>

    <traci_server>
        <remote-port value="8814"/>
    </traci_server>

</configuration>
-->

<tripinfos>
    <tripinfo id="136022_136022_411" depart="27003.00" departLane="23800191#2_0" departPos="5.10" departSpeed="0.00" departDelay="3.00" arrival="27009.00" arrivalLane="23800191#2_0" arrivalPos="38.41" arrivalSpeed="10.45" duration="6.00" routeLength="33.31" waitSteps="0" rerouteNo="0" devices="tripinfo_136022_136022_411 hbefa_136022_136022_411" vType="DEFAULT_VEHTYPE" vaporized="">
        <emissions CO_abs="272.695943" CO2_abs="19573.214636" HC_abs="6.707986" PMx_abs="2.285229" NOx_abs="40.790692" fuel_abs="7.803536"/>
    </tripinfo>
    <tripinfo id="182087_182087_431" depart="27000.00" departLane="4380937#2_0" departPos="5.10" departSpeed="0.00" departDelay="0.00" arrival="27011.00" arrivalLane="4380937#3_0" arrivalPos="72.76" arrivalSpeed="12.85" duration="11.00" routeLength="103.50" waitSteps="0" rerouteNo="1" devices="tripinfo_182087_182087_431 hbefa_182087_182087_431" vType="DEFAULT_VEHTYPE" vaporized="">
        <emissions CO_abs="469.466333" CO2_abs="33727.977358" HC_abs="10.989393" PMx_abs="4.032117" NOx_abs="71.397722" fuel_abs="13.446824"/>
    </tripinfo>
    <tripinfo id="72912_72912_384" depart="27003.00" departLane="9207803_0" departPos="5.10" departSpeed="0.00" departDelay="3.00" arrival="27014.00" arrivalLane="9207803_0" arrivalPos="69.23" arrivalSpeed="7.77" duration="11.00" routeLength="64.13" waitSteps="0" rerouteNo="0" devices="tripinfo_72912_72912_384 hbefa_72912_72912_384" vType="DEFAULT_VEHTYPE" vaporized="">
        <emissions CO_abs="273.372651" CO2_abs="21403.567363" HC_abs="7.116544" PMx_abs="2.347559" NOx_abs="43.643573" fuel_abs="8.533270"/>
    </tripinfo>
    <tripinfo id="251564_251564_457" depart="27002.00" departLane="51113317_0" departPos="5.10" departSpeed="0.00" departDelay="0.00" arrival="27014.00" arrivalLane="51113317_0" arrivalPos="125.08" arrivalSpeed="13.07" duration="12.00" routeLength="119.98" waitSteps="0" rerouteNo="0" devices="tripinfo_251564_251564_457 hbefa_251564_251564_457" vType="DEFAULT_VEHTYPE" vaporized="">
        <emissions CO_abs="484.206053" CO2_abs="36809.573320" HC_abs="11.620623" PMx_abs="4.310940" NOx_abs="77.179794" fuel_abs="14.675410"/>
    </tripinfo>
    <tripinfo id="92380_92380_392" depart="27000.00" departLane="-154755073#3_0" departPos="5.10" departSpeed="0.00" departDelay="0.00" arrival="27015.00" arrivalLane="-154755073#3_0" arrivalPos="102.52" arrivalSpeed="7.57" duration="15.00" routeLength="97.42" waitSteps="0" rerouteNo="1" devices="tripinfo_92380_92380_392 hbefa_92380_92380_392" vType="DEFAULT_VEHTYPE" vaporized="">
        <emissions CO_abs="226.657992" CO2_abs="22341.542292" HC_abs="6.971819" PMx_abs="2.157432" NOx_abs="43.295885" fuel_abs="8.907226"/>
    </tripinfo>
    <tripinfo id="84049_84049_390" depart="27006.00" departLane="9207803_0" departPos="5.10" departSpeed="0.00" departDelay="6.00" arrival="27016.00" arrivalLane="9207803_0" arrivalPos="69.23" arrivalSpeed="7.23" duration="10.00" routeLength="64.13" waitSteps="0" rerouteNo="0" devices="tripinfo_84049_84049_390 hbefa_84049_84049_390" vType="DEFAULT_VEHTYPE" vaporized="">
        <emissions CO_abs="166.748838" CO2_abs="16756.546954" HC_abs="5.236767" PMx_abs="1.603256" NOx_abs="32.288741" fuel_abs="6.680575"/>
    </tripinfo>
    <tripinfo id="232041_232041_451" depart="27002.00" departLane="28523795_0" departPos="5.10" departSpeed="0.00" departDelay="0.00" arrival="27020.00" arrivalLane="28523795_0" arrivalPos="192.02" arrivalSpeed="13.61" duration="18.00" routeLength="186.92" waitSteps="0" rerouteNo="0" devices="tripinfo_232041_232041_451 hbefa_232041_232041_451" vType="DEFAULT_VEHTYPE" vaporized="">
        <emissions CO_abs="502.765038" CO2_abs="43813.650422" HC_abs="13.167636" PMx_abs="4.568309" NOx_abs="88.819899" fuel_abs="17.467830"/>
    </tripinfo>
    <tripinfo id="105435_105435_398" depart="27003.00" departLane="145474196#1_0" departPos="5.10" departSpeed="0.00" departDelay="3.00" arrival="27021.00" arrivalLane="145474196#1_0" arrivalPos="94.12" arrivalSpeed="5.68" duration="18.00" routeLength="89.02" waitSteps="1" rerouteNo="0" devices="tripinfo_105435_105435_398 hbefa_105435_105435_398" vType="DEFAULT_VEHTYPE" vaporized="">
        <emissions CO_abs="428.636813" CO2_abs="31945.136067" HC_abs="10.784894" PMx_abs="3.595146" NOx_abs="65.902562" fuel_abs="12.736030"/>
    </tripinfo>
    <tripinfo id="135880_135880_411" depart="27000.00" departLane="150039002#2_0" departPos="5.10" departSpeed="0.00" departDelay="0.00" arrival="27022.00" arrivalLane="150039002#2_0" arrivalPos="249.40" arrivalSpeed="12.98" duration="22.00" routeLength="244.30" waitSteps="0" rerouteNo="0" devices="tripinfo_135880_135880_411 hbefa_135880_135880_411" vType="DEFAULT_VEHTYPE" vaporized="">
        <emissions CO_abs="528.236588" CO2_abs="47751.196637" HC_abs="14.007013" PMx_abs="4.935327" NOx_abs="96.451480" fuel_abs="19.037672"/>
    </tripinfo>
    <tripinfo id="219187_219187_446" depart="27000.00" departLane="144935690_0" departPos="5.10" departSpeed="0.00" departDelay="0.00" arrival="27022.00" arrivalLane="25997632_0" arrivalPos="136.14" arrivalSpeed="12.83" duration="22.00" routeLength="241.37" waitSteps="0" rerouteNo="0" devices="tripinfo_219187_219187_446 hbefa_219187_219187_446" vType="DEFAULT_VEHTYPE" vaporized="">
        <emissions CO_abs="524.873537" CO2_abs="55434.819307" HC_abs="15.377773" PMx_abs="5.328446" NOx_abs="108.941379" fuel_abs="22.101018"/>
    </tripinfo>
    <tripinfo id="206737_206737_440" depart="27007.00" departLane="-29206900_0" departPos="5.10" departSpeed="0.00" departDelay="0.00" arrival="27022.00" arrivalLane="29207110_0" arrivalPos="28.94" arrivalSpeed="12.01" duration="15.00" routeLength="103.46" waitSteps="0" rerouteNo="0" devices="tripinfo_206737_206737_440 hbefa_206737_206737_440" vType="DEFAULT_VEHTYPE" vaporized="">
        <emissions CO_abs="442.897520" CO2_abs="34439.018648" HC_abs="11.192436" PMx_abs="3.855711" NOx_abs="70.939990" fuel_abs="13.730303"/>
    </tripinfo>
    <tripinfo id="110327_110327_401" depart="27000.00" departLane="53212166#0_0" departPos="5.10" departSpeed="0.00" departDelay="0.00" arrival="27023.00" arrivalLane="28542995#2_2" arrivalPos="61.74" arrivalSpeed="12.92" duration="23.00" routeLength="231.82" waitSteps="0" rerouteNo="1" devices="tripinfo_110327_110327_401 hbefa_110327_110327_401" vType="DEFAULT_VEHTYPE" vaporized="">
        <emissions CO_abs="584.890263" CO2_abs="48703.220181" HC_abs="14.831664" PMx_abs="5.443680" NOx_abs="100.178298" fuel_abs="19.417225"/>
    </tripinfo>
    <tripinfo id="225242_225242_449" depart="27000.00" departLane="154755124_0" departPos="5.10" departSpeed="0.00" departDelay="0.00" arrival="27024.00" arrivalLane="4380937#3_1" arrivalPos="72.76" arrivalSpeed="12.85" duration="24.00" routeLength="103.50" waitSteps="0" rerouteNo="2" devices="tripinfo_225242_225242_449 hbefa_225242_225242_449" vType="DEFAULT_VEHTYPE" vaporized="">
        <emissions CO_abs="631.936664" CO2_abs="53640.306840" HC_abs="16.633701" PMx_abs="5.778417" NOx_abs="108.931232" fuel_abs="21.385563"/>
    </tripinfo>
    <tripinfo id="141415_141415_415" depart="27003.00" departLane="150039002#2_0" departPos="5.10" departSpeed="0.00" departDelay="3.00" arrival="27024.00" arrivalLane="150039002#2_0" arrivalPos="249.40" arrivalSpeed="13.52" duration="21.00" routeLength="244.30" waitSteps="0" rerouteNo="0" devices="tripinfo_141415_141415_415 hbefa_141415_141415_415" vType="DEFAULT_VEHTYPE" vaporized="">
        <emissions CO_abs="672.406690" CO2_abs="49748.651521" HC_abs="15.663119" PMx_abs="5.964425" NOx_abs="105.379206" fuel_abs="19.834023"/>
    </tripinfo>
    <tripinfo id="148867_148867_417" depart="27006.00" departLane="3065455_0" departPos="5.10" departSpeed="0.00" departDelay="6.00" arrival="27024.00" arrivalLane="23800191#0_0" arrivalPos="143.94" arrivalSpeed="13.83" duration="18.00" routeLength="194.49" waitSteps="0" rerouteNo="1" devices="tripinfo_148867_148867_417 hbefa_148867_148867_417" vType="DEFAULT_VEHTYPE" vaporized="">
        <emissions CO_abs="495.610530" CO2_abs="46044.231410" HC_abs="13.338071" PMx_abs="4.793157" NOx_abs="92.701101" fuel_abs="18.357131"/>
    </tripinfo>
    <tripinfo id="225541_225541_450" depart="27000.00" departLane="9207803_0" departPos="5.10" departSpeed="0.00" departDelay="0.00" arrival="27025.00" arrivalLane="154755073#3_0" arrivalPos="102.52" arrivalSpeed="7.40" duration="25.00" routeLength="166.65" waitSteps="0" rerouteNo="0" devices="tripinfo_225541_225541_450 hbefa_225541_225541_450" vType="DEFAULT_VEHTYPE" vaporized="">
        <emissions CO_abs="282.426139" CO2_abs="33782.712198" HC_abs="9.957261" PMx_abs="2.985047" NOx_abs="63.252083" fuel_abs="13.468644"/>
    </tripinfo>
    <tripinfo id="136596_136596_411" depart="27003.00" departLane="131651824_0" departPos="5.10" departSpeed="0.00" departDelay="3.00" arrival="27027.00" arrivalLane="4400211#0_0" arrivalPos="197.56" arrivalSpeed="12.52" duration="24.00" routeLength="253.49" waitSteps="0" rerouteNo="1" devices="tripinfo_136596_136596_411 hbefa_136596_136596_411" vType="DEFAULT_VEHTYPE" vaporized="">
        <emissions CO_abs="706.444079" CO2_abs="65142.319969" HC_abs="18.880707" PMx_abs="6.801399" NOx_abs="131.475856" fuel_abs="25.971248"/>
    </tripinfo>
    <tripinfo id="220353_220353_447" depart="27001.00" departLane="-165515969#3_0" departPos="5.10" departSpeed="0.00" departDelay="0.00" arrival="27027.00" arrivalLane="-165511531#0_0" arrivalPos="53.73" arrivalSpeed="13.13" duration="26.00" routeLength="345.81" waitSteps="0" rerouteNo="2" devices="tripinfo_220353_220353_447 hbefa_220353_220353_447" vType="DEFAULT_VEHTYPE" vaporized="">
        <emissions CO_abs="2281.561159" CO2_abs="133719.323381" HC_abs="45.518066" PMx_abs="17.777747" NOx_abs="299.640324" fuel_abs="53.311867"/>
    </tripinfo>
    <tripinfo id="75851_75851_386" depart="27002.00" departLane="28542995#2_0" departPos="5.10" departSpeed="0.00" departDelay="2.00" arrival="27028.00" arrivalLane="23493181#0_0" arrivalPos="88.20" arrivalSpeed="5.08" duration="26.00" routeLength="144.84" waitSteps="0" rerouteNo="0" devices="tripinfo_75851_75851_386 hbefa_75851_75851_386" vType="DEFAULT_VEHTYPE" vaporized="">
        <emissions CO_abs="610.927898" CO2_abs="43646.791250" HC_abs="15.034639" PMx_abs="5.302839" NOx_abs="91.314660" fuel_abs="17.401297"/>
    </tripinfo>
    <tripinfo id="134089_134089_411" depart="27000.00" departLane="23800191#2_0" departPos="5.10" departSpeed="0.00" departDelay="0.00" arrival="27029.00" arrivalLane="4400211#0_0" arrivalPos="197.56" arrivalSpeed="13.35" duration="29.00" routeLength="291.90" waitSteps="0" rerouteNo="0" devices="tripinfo_134089_134089_411 hbefa_134089_134089_411" vType="DEFAULT_VEHTYPE" vaporized="">
        <emissions CO_abs="592.074128" CO2_abs="61275.788472" HC_abs="17.296592" PMx_abs="5.861880" NOx_abs="120.351246" fuel_abs="24.429720"/>
    </tripinfo>
    <tripinfo id="118681_118681_405" depart="27000.00" departLane="23471158#6_0" departPos="5.10" departSpeed="0.00" departDelay="0.00" arrival="27030.00" arrivalLane="32856811#2_0" arrivalPos="144.91" arrivalSpeed="13.43" duration="30.00" routeLength="453.34" waitSteps="0" rerouteNo="0" devices="tripinfo_118681_118681_405 hbefa_118681_118681_405" vType="DEFAULT_VEHTYPE" vaporized="">
        <emissions CO_abs="2140.490582" CO2_abs="138011.723028" HC_abs="44.266091" PMx_abs="16.896180" NOx_abs="301.340620" fuel_abs="55.023210"/>
    </tripinfo>
    <tripinfo id="188835_188835_434" depart="27006.00" departLane="187965762#1_0" departPos="5.10" departSpeed="0.00" departDelay="6.00" arrival="27030.00" arrivalLane="187965762#2_0" arrivalPos="85.18" arrivalSpeed="8.06" duration="24.00" routeLength="168.92" waitSteps="0" rerouteNo="1" devices="tripinfo_188835_188835_434 hbefa_188835_188835_434" vType="DEFAULT_VEHTYPE" vaporized="">
        <emissions CO_abs="217.875554" CO2_abs="34703.270919" HC_abs="9.495246" PMx_abs="2.747429" NOx_abs="62.404482" fuel_abs="13.835658"/>
    </tripinfo>
    <tripinfo id="68737_68737_381" depart="27013.00" departLane="23493176_0" departPos="5.10" departSpeed="0.00" departDelay="13.00" arrival="27031.00" arrivalLane="23493176_1" arrivalPos="83.31" arrivalSpeed="7.39" duration="18.00" routeLength="78.21" waitSteps="0" rerouteNo="0" devices="tripinfo_68737_68737_381 hbefa_68737_68737_381" vType="DEFAULT_VEHTYPE" vaporized="">
        <emissions CO_abs="387.442535" CO2_abs="30872.828297" HC_abs="10.525087" PMx_abs="3.375845" NOx_abs="62.181641" fuel_abs="12.308516"/>
    </tripinfo>
    <tripinfo id="122617_122617_406" depart="27000.00" departLane="131651824_0" departPos="5.10" departSpeed="0.00" departDelay="0.00" arrival="27031.00" arrivalLane="130875842_0" arrivalPos="81.21" arrivalSpeed="12.95" duration="31.00" routeLength="334.70" waitSteps="0" rerouteNo="0" devices="tripinfo_122617_122617_406 hbefa_122617_122617_406" vType="DEFAULT_VEHTYPE" vaporized="">
        <emissions CO_abs="862.916013" CO2_abs="77829.118198" HC_abs="22.662363" PMx_abs="8.397196" NOx_abs="158.207599" fuel_abs="31.029279"/>
    </tripinfo>
    <tripinfo id="104726_104726_398" depart="27000.00" departLane="23471158#5_0" departPos="5.10" departSpeed="0.00" departDelay="0.00" arrival="27032.00" arrivalLane="32856811#2_0" arrivalPos="144.91" arrivalSpeed="13.12" duration="32.00" routeLength="464.21" waitSteps="0" rerouteNo="0" devices="tripinfo_104726_104726_398 hbefa_104726_104726_398" vType="DEFAULT_VEHTYPE" vaporized="">
        <emissions CO_abs="2073.720114" CO2_abs="132555.969222" HC_abs="42.798116" PMx_abs="16.087448" NOx_abs="289.155209" fuel_abs="52.848089"/>
    </tripinfo>
    <tripinfo id="187318_187318_433" depart="27013.00" departLane="-83823403#2_0" departPos="5.10" departSpeed="0.00" departDelay="0.00" arrival="27032.00" arrivalLane="-83823403#2_0" arrivalPos="184.87" arrivalSpeed="11.86" duration="19.00" routeLength="179.77" waitSteps="0" rerouteNo="0" devices="tripinfo_187318_187318_433 hbefa_187318_187318_433" vType="DEFAULT_VEHTYPE" vaporized="">
        <emissions CO_abs="682.359570" CO2_abs="49720.695588" HC_abs="15.990899" PMx_abs="6.058079" NOx_abs="105.273574" fuel_abs="19.822874"/>
    </tripinfo>
    <tripinfo id="162999_162999_422" depart="27000.00" departLane="150031230#2_0" departPos="5.10" departSpeed="0.00" departDelay="0.00" arrival="27033.00" arrivalLane="129833341#0_1" arrivalPos="129.85" arrivalSpeed="12.61" duration="33.00" routeLength="303.50" waitSteps="0" rerouteNo="0" devices="tripinfo_162999_162999_422 hbefa_162999_162999_422" vType="DEFAULT_VEHTYPE" vaporized="">
        <emissions CO_abs="937.192213" CO2_abs="72019.698817" HC_abs="22.659218" PMx_abs="8.386049" NOx_abs="150.533559" fuel_abs="28.713145"/>
    </tripinfo>
    <tripinfo id="212444_212444_443" depart="27003.00" departLane="166155712#0_0" departPos="5.10" departSpeed="0.00" departDelay="0.00" arrival="27033.00" arrivalLane="33469672_0" arrivalPos="142.78" arrivalSpeed="13.07" duration="30.00" routeLength="317.06" waitSteps="0" rerouteNo="1" devices="tripinfo_212444_212444_443 hbefa_212444_212444_443" vType="DEFAULT_VEHTYPE" vaporized="">
        <emissions CO_abs="842.840852" CO2_abs="72379.590491" HC_abs="21.632335" PMx_abs="7.886765" NOx_abs="148.081063" fuel_abs="28.856632"/>
    </tripinfo>
    <tripinfo id="208001_208001_441" depart="27001.00" departLane="-83823403#2_0" departPos="5.10" departSpeed="0.00" departDelay="0.00" arrival="27034.00" arrivalLane="23015529#0_0" arrivalPos="184.87" arrivalSpeed="13.25" duration="33.00" routeLength="364.64" waitSteps="0" rerouteNo="1" devices="tripinfo_208001_208001_441 hbefa_208001_208001_441" vType="DEFAULT_VEHTYPE" vaporized="">
        <emissions CO_abs="954.579456" CO2_abs="80024.542893" HC_abs="23.985747" PMx_abs="8.843262" NOx_abs="164.789961" fuel_abs="31.904559"/>
    </tripinfo>
    <tripinfo id="103310_103310_397" depart="27000.00" departLane="83703645_0" departPos="5.10" departSpeed="0.00" departDelay="0.00" arrival="27036.00" arrivalLane="23493177#0_0" arrivalPos="166.52" arrivalSpeed="8.01" duration="36.00" routeLength="279.85" waitSteps="0" rerouteNo="1" devices="tripinfo_103310_103310_397 hbefa_103310_103310_397" vType="DEFAULT_VEHTYPE" vaporized="">
        <emissions CO_abs="578.027965" CO2_abs="55338.517340" HC_abs="16.724238" PMx_abs="5.540655" NOx_abs="109.174211" fuel_abs="22.062612"/>
    </tripinfo>
    <tripinfo id="111586_111586_401" depart="27003.00" departLane="36454807#3_0" departPos="5.10" departSpeed="0.00" departDelay="3.00" arrival="27036.00" arrivalLane="23471158#9_0" arrivalPos="213.75" arrivalSpeed="27.60" duration="33.00" routeLength="380.36" waitSteps="0" rerouteNo="2" devices="tripinfo_111586_111586_401 hbefa_111586_111586_401" vType="DEFAULT_VEHTYPE" vaporized="">
        <emissions CO_abs="2690.292852" CO2_abs="165805.800465" HC_abs="55.098888" PMx_abs="21.044804" NOx_abs="365.904942" fuel_abs="66.104266"/>
    </tripinfo>
    <tripinfo id="217202_217202_446" depart="27007.00" departLane="-83823403#2_0" departPos="5.10" departSpeed="0.00" departDelay="0.00" arrival="27036.00" arrivalLane="23015533_0" arrivalPos="110.79" arrivalSpeed="12.92" duration="29.00" routeLength="290.56" waitSteps="0" rerouteNo="0" devices="tripinfo_217202_217202_446 hbefa_217202_217202_446" vType="DEFAULT_VEHTYPE" vaporized="">
        <emissions CO_abs="976.422831" CO2_abs="74947.831589" HC_abs="23.483141" PMx_abs="8.657519" NOx_abs="156.742884" fuel_abs="29.880547"/>
    </tripinfo>
    <tripinfo id="154499_154499_420" depart="27000.00" departLane="28542995#0_0" departPos="5.10" departSpeed="0.00" departDelay="0.00" arrival="27037.00" arrivalLane="23493260#4_1" arrivalPos="126.60" arrivalSpeed="13.42" duration="37.00" routeLength="435.19" waitSteps="0" rerouteNo="0" devices="tripinfo_154499_154499_420 hbefa_154499_154499_420" vType="DEFAULT_VEHTYPE" vaporized="">
        <emissions CO_abs="921.027716" CO2_abs="86612.612150" HC_abs="24.597301" PMx_abs="8.996149" NOx_abs="174.713435" fuel_abs="34.531127"/>
    </tripinfo>
    <tripinfo id="108705_108705_400" depart="27000.00" departLane="36454807#3_0" departPos="5.10" departSpeed="0.00" departDelay="0.00" arrival="27038.00" arrivalLane="32856811#2_0" arrivalPos="144.91" arrivalSpeed="13.85" duration="38.00" routeLength="538.02" waitSteps="0" rerouteNo="1" devices="tripinfo_108705_108705_400 hbefa_108705_108705_400" vType="DEFAULT_VEHTYPE" vaporized="">
        <emissions CO_abs="2443.907634" CO2_abs="162681.937366" HC_abs="51.651857" PMx_abs="19.630971" NOx_abs="352.368530" fuel_abs="64.858849"/>
    </tripinfo>
    <tripinfo id="238887_238887_451" depart="27010.00" departLane="-83823403#2_0" departPos="5.10" departSpeed="0.00" departDelay="0.00" arrival="27038.00" arrivalLane="23015533_0" arrivalPos="110.79" arrivalSpeed="12.85" duration="28.00" routeLength="290.56" waitSteps="0" rerouteNo="1" devices="tripinfo_238887_238887_451 hbefa_238887_238887_451" vType="DEFAULT_VEHTYPE" vaporized="">
        <emissions CO_abs="906.180928" CO2_abs="71940.146373" HC_abs="22.182300" PMx_abs="8.283957" NOx_abs="149.675422" fuel_abs="28.681431"/>
    </tripinfo>
    <tripinfo id="171544_171544_426" depart="27000.00" departLane="187965762#1_0" departPos="5.10" departSpeed="0.00" departDelay="0.00" arrival="27039.00" arrivalLane="23800191#0_0" arrivalPos="143.94" arrivalSpeed="13.52" duration="39.00" routeLength="368.51" waitSteps="0" rerouteNo="0" devices="tripinfo_171544_171544_426 hbefa_171544_171544_426" vType="DEFAULT_VEHTYPE" vaporized="">
        <emissions CO_abs="664.425095" CO2_abs="67363.923176" HC_abs="19.448113" PMx_abs="6.613605" NOx_abs="132.471634" fuel_abs="26.856962"/>
    </tripinfo>
    <tripinfo id="218769_218769_446" depart="27003.00" departLane="-55940134_0" departPos="5.10" departSpeed="0.00" departDelay="3.00" arrival="27040.00" arrivalLane="-144935692#1_1" arrivalPos="103.61" arrivalSpeed="12.91" duration="37.00" routeLength="447.77" waitSteps="0" rerouteNo="1" devices="tripinfo_218769_218769_446 hbefa_218769_218769_446" vType="DEFAULT_VEHTYPE" vaporized="">
        <emissions CO_abs="669.809501" CO2_abs="71758.535489" HC_abs="19.535056" PMx_abs="6.823518" NOx_abs="141.040344" fuel_abs="28.609037"/>
    </tripinfo>
    <tripinfo id="103637_103637_397" depart="27000.00" departLane="145474196#1_0" departPos="5.10" departSpeed="0.00" departDelay="0.00" arrival="27040.00" arrivalLane="150039002#2_1" arrivalPos="249.40" arrivalSpeed="13.32" duration="40.00" routeLength="361.28" waitSteps="2" rerouteNo="1" devices="tripinfo_103637_103637_397 hbefa_103637_103637_397" vType="DEFAULT_VEHTYPE" vaporized="">
        <emissions CO_abs="1028.874686" CO2_abs="87142.245164" HC_abs="26.200035" PMx_abs="9.584787" NOx_abs="178.746429" fuel_abs="34.742277"/>
    </tripinfo>
    <tripinfo id="138122_138122_412" depart="27009.00" departLane="131651824_0" departPos="5.10" departSpeed="0.00" departDelay="9.00" arrival="27040.00" arrivalLane="130875842_0" arrivalPos="81.21" arrivalSpeed="12.77" duration="31.00" routeLength="334.70" waitSteps="0" rerouteNo="1" devices="tripinfo_138122_138122_412 hbefa_138122_138122_412" vType="DEFAULT_VEHTYPE" vaporized="">
        <emissions CO_abs="985.801204" CO2_abs="81562.546578" HC_abs="24.536551" PMx_abs="9.035984" NOx_abs="168.307716" fuel_abs="32.517737"/>
    </tripinfo>
    <tripinfo id="244420_244420_453" depart="27015.00" departLane="-165515969#3_0" departPos="5.10" departSpeed="0.00" departDelay="0.00" arrival="27041.00" arrivalLane="-165511531#0_0" arrivalPos="53.73" arrivalSpeed="13.59" duration="26.00" routeLength="345.81" waitSteps="0" rerouteNo="1" devices="tripinfo_244420_244420_453 hbefa_244420_244420_453" vType="DEFAULT_VEHTYPE" vaporized="">
        <emissions CO_abs="2269.924415" CO2_abs="135377.768558" HC_abs="45.753964" PMx_abs="18.140059" NOx_abs="302.742990" fuel_abs="53.973057"/>
    </tripinfo>
    <tripinfo id="184987_184987_431" depart="27000.00" departLane="-186463490#0_0" departPos="5.10" departSpeed="0.00" departDelay="0.00" arrival="27042.00" arrivalLane="-144935692#1_1" arrivalPos="103.61" arrivalSpeed="13.38" duration="42.00" routeLength="500.46" waitSteps="0" rerouteNo="1" devices="tripinfo_184987_184987_431 hbefa_184987_184987_431" vType="DEFAULT_VEHTYPE" vaporized="">
        <emissions CO_abs="659.911288" CO2_abs="81948.076807" HC_abs="21.345637" PMx_abs="7.194128" NOx_abs="157.215424" fuel_abs="32.671455"/>
    </tripinfo>
    <tripinfo id="100594_100594_396" depart="27000.00" departLane="36454807#3-AddedOnRampEdge_0" departPos="5.10" departSpeed="0.00" departDelay="0.00" arrival="27042.00" arrivalLane="23471158#9_0" arrivalPos="213.75" arrivalSpeed="27.65" duration="42.00" routeLength="393.11" waitSteps="3" rerouteNo="3" devices="tripinfo_100594_100594_396 hbefa_100594_100594_396" vType="DEFAULT_VEHTYPE" vaporized="">
        <emissions CO_abs="2986.668287" CO2_abs="183562.574561" HC_abs="60.493028" PMx_abs="22.883640" NOx_abs="404.443662" fuel_abs="73.183654"/>
    </tripinfo>
    <tripinfo id="224931_224931_449" depart="27026.00" departLane="-28523795_0" departPos="5.10" departSpeed="0.00" departDelay="0.00" arrival="27043.00" arrivalLane="-28523795_0" arrivalPos="192.02" arrivalSpeed="12.83" duration="17.00" routeLength="186.92" waitSteps="0" rerouteNo="1" devices="tripinfo_224931_224931_449 hbefa_224931_224931_449" vType="DEFAULT_VEHTYPE" vaporized="">
        <emissions CO_abs="466.293418" CO2_abs="40487.709631" HC_abs="12.126355" PMx_abs="4.322265" NOx_abs="82.405218" fuel_abs="16.141829"/>
    </tripinfo>
    <tripinfo id="211099_211099_442" depart="27013.00" departLane="166155712#0_0" departPos="5.10" departSpeed="0.00" departDelay="0.00" arrival="27043.00" arrivalLane="33469672_0" arrivalPos="142.78" arrivalSpeed="13.17" duration="30.00" routeLength="317.06" waitSteps="0" rerouteNo="0" devices="tripinfo_211099_211099_442 hbefa_211099_211099_442" vType="DEFAULT_VEHTYPE" vaporized="">
        <emissions CO_abs="862.096298" CO2_abs="75610.344488" HC_abs="22.387869" PMx_abs="8.016446" NOx_abs="153.798582" fuel_abs="30.144686"/>
    </tripinfo>
    <tripinfo id="84113_84113_390" depart="27000.00" departLane="150031205#0_0" departPos="5.10" departSpeed="0.00" departDelay="0.00" arrival="27043.00" arrivalLane="23471158#10_0" arrivalPos="144.68" arrivalSpeed="25.29" duration="43.00" routeLength="456.75" waitSteps="1" rerouteNo="1" devices="tripinfo_84113_84113_390 hbefa_84113_84113_390" vType="DEFAULT_VEHTYPE" vaporized="">
        <emissions CO_abs="2173.153192" CO2_abs="154230.282116" HC_abs="48.440762" PMx_abs="18.541772" NOx_abs="329.736674" fuel_abs="61.489273"/>
    </tripinfo>
    <tripinfo id="197472_197472_436" depart="27006.00" departLane="23800191#2_0" departPos="5.10" departSpeed="0.00" departDelay="6.00" arrival="27043.00" arrivalLane="130875842_0" arrivalPos="81.21" arrivalSpeed="13.14" duration="37.00" routeLength="373.11" waitSteps="0" rerouteNo="0" devices="tripinfo_197472_197472_436 hbefa_197472_197472_436" vType="DEFAULT_VEHTYPE" vaporized="">
        <emissions CO_abs="940.613629" CO2_abs="80537.000080" HC_abs="24.349973" PMx_abs="8.671334" NOx_abs="164.228753" fuel_abs="32.108865"/>
    </tripinfo>
    <tripinfo id="212327_212327_442" depart="27014.00" departLane="198147972_0" departPos="5.10" departSpeed="0.00" departDelay="0.00" arrival="27043.00" arrivalLane="4353628#1_0" arrivalPos="68.95" arrivalSpeed="12.70" duration="29.00" routeLength="339.08" waitSteps="0" rerouteNo="0" devices="tripinfo_212327_212327_442 hbefa_212327_212327_442" vType="DEFAULT_VEHTYPE" vaporized="">
        <emissions CO_abs="559.659511" CO2_abs="56853.595905" HC_abs="15.897729" PMx_abs="5.692386" NOx_abs="112.785798" fuel_abs="22.666662"/>
    </tripinfo>
    <tripinfo id="245947_245947_454" depart="27016.00" departLane="-83823403#2_0" departPos="5.10" departSpeed="0.00" departDelay="0.00" arrival="27044.00" arrivalLane="23015533_0" arrivalPos="110.79" arrivalSpeed="13.04" duration="28.00" routeLength="290.56" waitSteps="0" rerouteNo="1" devices="tripinfo_245947_245947_454 hbefa_245947_245947_454" vType="DEFAULT_VEHTYPE" vaporized="">
        <emissions CO_abs="771.815374" CO2_abs="68733.811672" HC_abs="20.385125" PMx_abs="7.180841" NOx_abs="139.027123" fuel_abs="27.403117"/>
    </tripinfo>
    <tripinfo id="227630_227630_450" depart="27017.00" departLane="166155712#0_0" departPos="5.10" departSpeed="0.00" departDelay="0.00" arrival="27046.00" arrivalLane="33469672_0" arrivalPos="142.78" arrivalSpeed="12.97" duration="29.00" routeLength="317.06" waitSteps="0" rerouteNo="1" devices="tripinfo_227630_227630_450 hbefa_227630_227630_450" vType="DEFAULT_VEHTYPE" vaporized="">
        <emissions CO_abs="851.831353" CO2_abs="74686.343717" HC_abs="21.928127" PMx_abs="8.002683" NOx_abs="152.446647" fuel_abs="29.776302"/>
    </tripinfo>
    <tripinfo id="140107_140107_414" depart="27000.00" departLane="154755117_0" departPos="5.10" departSpeed="0.00" departDelay="0.00" arrival="27046.00" arrivalLane="23800191#0_0" arrivalPos="143.94" arrivalSpeed="12.89" duration="46.00" routeLength="212.88" waitSteps="18" rerouteNo="0" devices="tripinfo_140107_140107_414 hbefa_140107_140107_414" vType="DEFAULT_VEHTYPE" vaporized="">
        <emissions CO_abs="834.592837" CO2_abs="70541.487957" HC_abs="24.556850" PMx_abs="7.029526" NOx_abs="137.741413" fuel_abs="28.123802"/>
    </tripinfo>
    <tripinfo id="244003_244003_453" depart="27029.00" departLane="-28523795_0" departPos="5.10" departSpeed="0.00" departDelay="0.00" arrival="27047.00" arrivalLane="-28523795_0" arrivalPos="192.02" arrivalSpeed="13.68" duration="18.00" routeLength="186.92" waitSteps="0" rerouteNo="1" devices="tripinfo_244003_244003_453 hbefa_244003_244003_453" vType="DEFAULT_VEHTYPE" vaporized="">
        <emissions CO_abs="555.125501" CO2_abs="43977.277970" HC_abs="13.623251" PMx_abs="4.979114" NOx_abs="91.328525" fuel_abs="17.533065"/>
    </tripinfo>
    <tripinfo id="144652_144652_416" depart="27000.00" departLane="3065455_0" departPos="5.10" departSpeed="0.00" departDelay="0.00" arrival="27047.00" arrivalLane="130659365_0" arrivalPos="223.21" arrivalSpeed="6.15" duration="47.00" routeLength="365.42" waitSteps="7" rerouteNo="1" devices="tripinfo_144652_144652_416 hbefa_144652_144652_416" vType="DEFAULT_VEHTYPE" vaporized="">
        <emissions CO_abs="856.919233" CO2_abs="79544.036534" HC_abs="23.924695" PMx_abs="8.010572" NOx_abs="158.278488" fuel_abs="31.712988"/>
    </tripinfo>
    <tripinfo id="221885_221885_448" depart="27017.00" departLane="-175607927#0_0" departPos="5.10" departSpeed="0.00" departDelay="0.00" arrival="27047.00" arrivalLane="-29214406_0" arrivalPos="179.38" arrivalSpeed="13.34" duration="30.00" routeLength="317.06" waitSteps="0" rerouteNo="0" devices="tripinfo_221885_221885_448 hbefa_221885_221885_448" vType="DEFAULT_VEHTYPE" vaporized="">