<?xml version="1.0" encoding="UTF-8"?>

<!-- generated on Tue Apr 29 17:42:56 2014 by SUMO sumo Version 0.19.0
<?xml version="1.0" encoding="UTF-8"?>

<configuration xmlns:xsi="http://www.w3.org/2001/XMLSchema-instance" xsi:noNamespaceSchemaLocation="http://sumo-sim.org/xsd/sumoConfiguration.xsd">

    <input>
        <net-file value="data/map.net.xml"/>
        <route-files value="data/map.rou.xml"/>
    </input>

    <output>
        <tripinfo-output value="data/maptripinfo.out.xml"/>
        <save-state.prefix value="data/state"/>
    </output>

    <time>
        <begin value="27000"/>
        <end value="27900"/>
    </time>

    <processing>
        <route-steps value="200"/>
        <scale value="0.8"/>
        <time-to-teleport value="300"/>
        <lanechange.allow-swap value="true"/>
    </processing>

    <report>
        <verbose value="true"/>
        <no-warnings value="true"/>
        <no-step-log value="true"/>
    </report>

    <emissions>
        <device.hbefa.probability value="1"/>
    </emissions>

    <traci_server>
        <remote-port value="8814"/>
    </traci_server>

</configuration>
-->

<tripinfos>
    <tripinfo id="136022_136022_411" depart="27003.00" departLane="23800191#2_0" departPos="5.10" departSpeed="0.00" departDelay="3.00" arrival="27009.00" arrivalLane="23800191#2_0" arrivalPos="38.41" arrivalSpeed="9.69" duration="6.00" routeLength="33.31" waitSteps="0" rerouteNo="1" devices="tripinfo_136022_136022_411 hbefa_136022_136022_411" vType="DEFAULT_VEHTYPE" vaporized="">
        <emissions CO_abs="211.299578" CO2_abs="17225.553263" HC_abs="5.701574" PMx_abs="1.793053" NOx_abs="34.620380" fuel_abs="6.867561"/>
    </tripinfo>
    <tripinfo id="182087_182087_431" depart="27000.00" departLane="4380937#2_0" departPos="5.10" departSpeed="0.00" departDelay="0.00" arrival="27011.00" arrivalLane="4380937#3_0" arrivalPos="72.76" arrivalSpeed="13.68" duration="11.00" routeLength="67.66" waitSteps="0" rerouteNo="3" devices="tripinfo_182087_182087_431 hbefa_182087_182087_431" vType="DEFAULT_VEHTYPE" vaporized="">
        <emissions CO_abs="503.553340" CO2_abs="39444.924618" HC_abs="12.331478" PMx_abs="4.483716" NOx_abs="82.002797" fuel_abs="15.726085"/>
    </tripinfo>
    <tripinfo id="72912_72912_384" depart="27003.00" departLane="9207803_0" departPos="5.10" departSpeed="0.00" departDelay="3.00" arrival="27014.00" arrivalLane="9207803_0" arrivalPos="69.23" arrivalSpeed="7.87" duration="11.00" routeLength="64.13" waitSteps="0" rerouteNo="1" devices="tripinfo_72912_72912_384 hbefa_72912_72912_384" vType="DEFAULT_VEHTYPE" vaporized="">
        <emissions CO_abs="228.981013" CO2_abs="19360.008076" HC_abs="6.305308" PMx_abs="2.071948" NOx_abs="38.823806" fuel_abs="7.718534"/>
    </tripinfo>
    <tripinfo id="251564_251564_457" depart="27002.00" departLane="51113317_0" departPos="5.10" departSpeed="0.00" departDelay="0.00" arrival="27014.00" arrivalLane="51113317_0" arrivalPos="125.08" arrivalSpeed="13.78" duration="12.00" routeLength="119.98" waitSteps="0" rerouteNo="1" devices="tripinfo_251564_251564_457 hbefa_251564_251564_457" vType="DEFAULT_VEHTYPE" vaporized="">
        <emissions CO_abs="510.903994" CO2_abs="39973.334965" HC_abs="12.430503" PMx_abs="4.618971" NOx_abs="83.358010" fuel_abs="15.936755"/>
    </tripinfo>
    <tripinfo id="92380_92380_392" depart="27000.00" departLane="-154755073#3_0" departPos="5.10" departSpeed="0.00" departDelay="0.00" arrival="27015.00" arrivalLane="-154755073#3_0" arrivalPos="102.52" arrivalSpeed="7.90" duration="15.00" routeLength="97.42" waitSteps="0" rerouteNo="1" devices="tripinfo_92380_92380_392 hbefa_92380_92380_392" vType="DEFAULT_VEHTYPE" vaporized="">
        <emissions CO_abs="216.250736" CO2_abs="21975.094848" HC_abs="6.779613" PMx_abs="2.073357" NOx_abs="42.273505" fuel_abs="8.761130"/>
    </tripinfo>
    <tripinfo id="105435_105435_398" depart="27003.00" departLane="145474196#1_0" departPos="5.10" departSpeed="0.00" departDelay="3.00" arrival="27016.00" arrivalLane="145474196#1_1" arrivalPos="94.12" arrivalSpeed="8.33" duration="13.00" routeLength="89.02" waitSteps="0" rerouteNo="1" devices="tripinfo_105435_105435_398 hbefa_105435_105435_398" vType="DEFAULT_VEHTYPE" vaporized="">
        <emissions CO_abs="500.825972" CO2_abs="36988.513710" HC_abs="12.172369" PMx_abs="4.318514" NOx_abs="77.324202" fuel_abs="14.746747"/>
    </tripinfo>
    <tripinfo id="84049_84049_390" depart="27006.00" departLane="9207803_0" departPos="5.10" departSpeed="0.00" departDelay="6.00" arrival="27016.00" arrivalLane="9207803_0" arrivalPos="69.23" arrivalSpeed="7.75" duration="10.00" routeLength="64.13" waitSteps="0" rerouteNo="1" devices="tripinfo_84049_84049_390 hbefa_84049_84049_390" vType="DEFAULT_VEHTYPE" vaporized="">
        <emissions CO_abs="256.641287" CO2_abs="20954.012878" HC_abs="6.836625" PMx_abs="2.270339" NOx_abs="42.429510" fuel_abs="8.354039"/>
    </tripinfo>
    <tripinfo id="105964_105964_399" depart="27006.00" departLane="145474196#1_0" departPos="5.10" departSpeed="0.00" departDelay="6.00" arrival="27019.00" arrivalLane="145474196#1_0" arrivalPos="94.12" arrivalSpeed="9.20" duration="13.00" routeLength="89.02" waitSteps="0" rerouteNo="1" devices="tripinfo_105964_105964_399 hbefa_105964_105964_399" vType="DEFAULT_VEHTYPE" vaporized="">
        <emissions CO_abs="474.428802" CO2_abs="34500.820354" HC_abs="11.376287" PMx_abs="4.094285" NOx_abs="72.522150" fuel_abs="13.754942"/>
    </tripinfo>
    <tripinfo id="232041_232041_451" depart="27002.00" departLane="28523795_0" departPos="5.10" departSpeed="0.00" departDelay="0.00" arrival="27020.00" arrivalLane="28523795_0" arrivalPos="192.02" arrivalSpeed="13.30" duration="18.00" routeLength="186.92" waitSteps="0" rerouteNo="1" devices="tripinfo_232041_232041_451 hbefa_232041_232041_451" vType="DEFAULT_VEHTYPE" vaporized="">
        <emissions CO_abs="464.142435" CO2_abs="42149.286693" HC_abs="12.462003" PMx_abs="4.331337" NOx_abs="84.842372" fuel_abs="16.804275"/>
    </tripinfo>
    <tripinfo id="135880_135880_411" depart="27000.00" departLane="150039002#2_0" departPos="5.10" departSpeed="0.00" departDelay="0.00" arrival="27021.00" arrivalLane="150039002#2_0" arrivalPos="249.40" arrivalSpeed="13.76" duration="21.00" routeLength="244.30" waitSteps="0" rerouteNo="1" devices="tripinfo_135880_135880_411 hbefa_135880_135880_411" vType="DEFAULT_VEHTYPE" vaporized="">
        <emissions CO_abs="617.244106" CO2_abs="54482.611691" HC_abs="16.018223" PMx_abs="5.679985" NOx_abs="110.697938" fuel_abs="21.721384"/>
    </tripinfo>
    <tripinfo id="219187_219187_446" depart="27000.00" departLane="144935690_0" departPos="5.10" departSpeed="0.00" departDelay="0.00" arrival="27022.00" arrivalLane="25997632_0" arrivalPos="136.14" arrivalSpeed="13.12" duration="22.00" routeLength="131.04" waitSteps="0" rerouteNo="5" devices="tripinfo_219187_219187_446 hbefa_219187_219187_446" vType="DEFAULT_VEHTYPE" vaporized="">
        <emissions CO_abs="500.894576" CO2_abs="48241.856545" HC_abs="13.955322" PMx_abs="4.674747" NOx_abs="95.820933" fuel_abs="19.233290"/>
    </tripinfo>
    <tripinfo id="206737_206737_440" depart="27007.00" departLane="-29206900_0" departPos="5.10" departSpeed="0.00" departDelay="0.00" arrival="27022.00" arrivalLane="29207110_0" arrivalPos="28.94" arrivalSpeed="13.76" duration="15.00" routeLength="23.84" waitSteps="0" rerouteNo="3" devices="tripinfo_206737_206737_440 hbefa_206737_206737_440" vType="DEFAULT_VEHTYPE" vaporized="">
        <emissions CO_abs="520.242800" CO2_abs="40780.085110" HC_abs="13.139992" PMx_abs="4.641709" NOx_abs="84.078894" fuel_abs="16.258389"/>
    </tripinfo>
    <tripinfo id="110327_110327_401" depart="27000.00" departLane="53212166#0_0" departPos="5.10" departSpeed="0.00" departDelay="0.00" arrival="27024.00" arrivalLane="28542995#2_2" arrivalPos="61.74" arrivalSpeed="13.30" duration="24.00" routeLength="56.64" waitSteps="0" rerouteNo="7" devices="tripinfo_110327_110327_401 hbefa_110327_110327_401" vType="DEFAULT_VEHTYPE" vaporized="">
        <emissions CO_abs="495.519676" CO2_abs="51828.307732" HC_abs="14.713613" PMx_abs="5.051932" NOx_abs="101.587131" fuel_abs="20.663152"/>
    </tripinfo>
    <tripinfo id="225242_225242_449" depart="27000.00" departLane="154755124_0" departPos="5.10" departSpeed="0.00" departDelay="0.00" arrival="27024.00" arrivalLane="4380937#3_1" arrivalPos="72.76" arrivalSpeed="13.50" duration="24.00" routeLength="67.66" waitSteps="0" rerouteNo="5" devices="tripinfo_225242_225242_449 hbefa_225242_225242_449" vType="DEFAULT_VEHTYPE" vaporized="">
        <emissions CO_abs="680.463632" CO2_abs="55943.486181" HC_abs="17.451521" PMx_abs="6.164602" NOx_abs="114.505135" fuel_abs="22.303805"/>
    </tripinfo>
    <tripinfo id="75851_75851_386" depart="27002.00" departLane="28542995#2_0" departPos="5.10" departSpeed="0.00" departDelay="2.00" arrival="27024.00" arrivalLane="23493181#0_0" arrivalPos="88.20" arrivalSpeed="9.76" duration="22.00" routeLength="83.10" waitSteps="0" rerouteNo="2" devices="tripinfo_75851_75851_386 hbefa_75851_75851_386" vType="DEFAULT_VEHTYPE" vaporized="">
        <emissions CO_abs="834.693859" CO2_abs="54339.947622" HC_abs="18.769692" PMx_abs="7.112209" NOx_abs="117.698313" fuel_abs="21.664492"/>
    </tripinfo>
    <tripinfo id="148867_148867_417" depart="27006.00" departLane="3065455_0" departPos="5.10" departSpeed="0.00" departDelay="6.00" arrival="27024.00" arrivalLane="23800191#0_0" arrivalPos="143.94" arrivalSpeed="12.73" duration="18.00" routeLength="138.84" waitSteps="0" rerouteNo="3" devices="tripinfo_148867_148867_417 hbefa_148867_148867_417" vType="DEFAULT_VEHTYPE" vaporized="">
        <emissions CO_abs="619.194244" CO2_abs="42761.045376" HC_abs="13.925379" PMx_abs="5.390194" NOx_abs="92.037825" fuel_abs="17.048170"/>
    </tripinfo>
    <tripinfo id="141415_141415_415" depart="27003.00" departLane="150039002#2_0" departPos="5.10" departSpeed="0.00" departDelay="3.00" arrival="27025.00" arrivalLane="150039002#2_0" arrivalPos="249.40" arrivalSpeed="13.49" duration="22.00" routeLength="244.30" waitSteps="0" rerouteNo="1" devices="tripinfo_141415_141415_415 hbefa_141415_141415_415" vType="DEFAULT_VEHTYPE" vaporized="">
        <emissions CO_abs="571.924918" CO2_abs="53388.410969" HC_abs="15.341113" PMx_abs="5.602166" NOx_abs="107.574405" fuel_abs="21.285144"/>
    </tripinfo>
    <tripinfo id="225541_225541_450" depart="27000.00" departLane="9207803_0" departPos="5.10" departSpeed="0.00" departDelay="0.00" arrival="27025.00" arrivalLane="154755073#3_0" arrivalPos="102.52" arrivalSpeed="7.47" duration="25.00" routeLength="97.42" waitSteps="0" rerouteNo="3" devices="tripinfo_225541_225541_450 hbefa_225541_225541_450" vType="DEFAULT_VEHTYPE" vaporized="">
        <emissions CO_abs="315.922441" CO2_abs="35264.146114" HC_abs="10.538358" PMx_abs="3.233997" NOx_abs="66.888875" fuel_abs="14.059269"/>
    </tripinfo>
    <tripinfo id="136596_136596_411" depart="27003.00" departLane="131651824_0" departPos="5.10" departSpeed="0.00" departDelay="3.00" arrival="27027.00" arrivalLane="4400211#0_0" arrivalPos="197.56" arrivalSpeed="11.48" duration="24.00" routeLength="192.46" waitSteps="0" rerouteNo="2" devices="tripinfo_136596_136596_411 hbefa_136596_136596_411" vType="DEFAULT_VEHTYPE" vaporized="">
        <emissions CO_abs="743.176213" CO2_abs="58109.643494" HC_abs="18.030622" PMx_abs="6.618426" NOx_abs="121.059141" fuel_abs="23.167421"/>
    </tripinfo>
    <tripinfo id="134089_134089_411" depart="27000.00" departLane="23800191#2_0" departPos="5.10" departSpeed="0.00" departDelay="0.00" arrival="27028.00" arrivalLane="4400211#0_0" arrivalPos="197.56" arrivalSpeed="12.06" duration="28.00" routeLength="192.46" waitSteps="0" rerouteNo="5" devices="tripinfo_134089_134089_411 hbefa_134089_134089_411" vType="DEFAULT_VEHTYPE" vaporized="">
        <emissions CO_abs="881.651740" CO2_abs="69492.258871" HC_abs="21.472466" PMx_abs="8.043961" NOx_abs="144.938797" fuel_abs="27.705495"/>
    </tripinfo>
    <tripinfo id="220353_220353_447" depart="27001.00" departLane="-165515969#3_0" departPos="5.10" departSpeed="0.00" departDelay="0.00" arrival="27028.00" arrivalLane="-165511531#0_0" arrivalPos="53.73" arrivalSpeed="12.67" duration="27.00" routeLength="48.63" waitSteps="0" rerouteNo="5" devices="tripinfo_220353_220353_447 hbefa_220353_220353_447" vType="DEFAULT_VEHTYPE" vaporized="">
        <emissions CO_abs="2193.763919" CO2_abs="130842.230598" HC_abs="44.425604" PMx_abs="17.392569" NOx_abs="291.990590" fuel_abs="52.164806"/>
    </tripinfo>
    <tripinfo id="84113_84113_390" depart="27000.00" departLane="150031205#0_0" departPos="5.10" departSpeed="0.00" departDelay="0.00" arrival="27029.00" arrivalLane="23471158#10_0" arrivalPos="144.68" arrivalSpeed="27.41" duration="29.00" routeLength="139.58" waitSteps="1" rerouteNo="7" devices="tripinfo_84113_84113_390 hbefa_84113_84113_390" vType="DEFAULT_VEHTYPE" vaporized="">
        <emissions CO_abs="3075.896007" CO2_abs="176027.469099" HC_abs="59.539224" PMx_abs="22.306879" NOx_abs="394.141652" fuel_abs="70.179541"/>
    </tripinfo>
    <tripinfo id="118681_118681_405" depart="27000.00" departLane="23471158#6_0" departPos="5.10" departSpeed="0.00" departDelay="0.00" arrival="27031.00" arrivalLane="32856811#2_0" arrivalPos="144.91" arrivalSpeed="13.62" duration="31.00" routeLength="139.81" waitSteps="0" rerouteNo="5" devices="tripinfo_118681_118681_405 hbefa_118681_118681_405" vType="DEFAULT_VEHTYPE" vaporized="">
        <emissions CO_abs="2076.612615" CO2_abs="132562.431073" HC_abs="42.935262" PMx_abs="16.455799" NOx_abs="290.179009" fuel_abs="52.850648"/>
    </tripinfo>
    <tripinfo id="188835_188835_434" depart="27006.00" departLane="187965762#1_0" departPos="5.10" departSpeed="0.00" departDelay="6.00" arrival="27031.00" arrivalLane="187965762#2_0" arrivalPos="85.18" arrivalSpeed="7.19" duration="25.00" routeLength="168.92" waitSteps="0" rerouteNo="0" devices="tripinfo_188835_188835_434 hbefa_188835_188835_434" vType="DEFAULT_VEHTYPE" vaporized="">
        <emissions CO_abs="336.528677" CO2_abs="34812.521647" HC_abs="10.582945" PMx_abs="3.321470" NOx_abs="67.058140" fuel_abs="13.879213"/>
    </tripinfo>
    <tripinfo id="122617_122617_406" depart="27000.00" departLane="131651824_0" departPos="5.10" departSpeed="0.00" departDelay="0.00" arrival="27031.00" arrivalLane="130875842_0" arrivalPos="81.21" arrivalSpeed="13.79" duration="31.00" routeLength="76.11" waitSteps="0" rerouteNo="5" devices="tripinfo_122617_122617_406 hbefa_122617_122617_406" vType="DEFAULT_VEHTYPE" vaporized="">
        <emissions CO_abs="959.756909" CO2_abs="77984.688324" HC_abs="23.706971" PMx_abs="8.736962" NOx_abs="161.506954" fuel_abs="31.091299"/>
    </tripinfo>
    <tripinfo id="187318_187318_433" depart="27013.00" departLane="-83823403#2_0" departPos="5.10" departSpeed="0.00" departDelay="0.00" arrival="27032.00" arrivalLane="-83823403#2_0" arrivalPos="184.87" arrivalSpeed="9.88" duration="19.00" routeLength="179.77" waitSteps="0" rerouteNo="1" devices="tripinfo_187318_187318_433 hbefa_187318_187318_433" vType="DEFAULT_VEHTYPE" vaporized="">
        <emissions CO_abs="748.897264" CO2_abs="52759.481652" HC_abs="17.162735" PMx_abs="6.642260" NOx_abs="112.946916" fuel_abs="21.034391"/>
    </tripinfo>
    <tripinfo id="104726_104726_398" depart="27000.00" departLane="23471158#5_0" departPos="5.10" departSpeed="0.00" departDelay="0.00" arrival="27033.00" arrivalLane="32856811#2_0" arrivalPos="144.91" arrivalSpeed="13.03" duration="33.00" routeLength="139.81" waitSteps="0" rerouteNo="7" devices="tripinfo_104726_104726_398 hbefa_104726_104726_398" vType="DEFAULT_VEHTYPE" vaporized="">
        <emissions CO_abs="2015.935304" CO2_abs="132318.845443" HC_abs="42.375593" PMx_abs="15.935255" NOx_abs="287.286654" fuel_abs="52.753538"/>
    </tripinfo>
    <tripinfo id="212444_212444_443" depart="27003.00" departLane="166155712#0_0" departPos="5.10" departSpeed="0.00" departDelay="0.00" arrival="27033.00" arrivalLane="33469672_0" arrivalPos="142.78" arrivalSpeed="13.01" duration="30.00" routeLength="317.06" waitSteps="0" rerouteNo="0" devices="tripinfo_212444_212444_443 hbefa_212444_212444_443" vType="DEFAULT_VEHTYPE" vaporized="">
        <emissions CO_abs="914.731539" CO2_abs="75590.589746" HC_abs="22.850078" PMx_abs="8.426876" NOx_abs="155.964588" fuel_abs="30.136808"/>
    </tripinfo>
    <tripinfo id="103310_103310_397" depart="27000.00" departLane="83703645_0" departPos="5.10" departSpeed="0.00" departDelay="0.00" arrival="27034.00" arrivalLane="23493177#0_0" arrivalPos="166.52" arrivalSpeed="8.26" duration="34.00" routeLength="161.42" waitSteps="0" rerouteNo="5" devices="tripinfo_103310_103310_397 hbefa_103310_103310_397" vType="DEFAULT_VEHTYPE" vaporized="">
        <emissions CO_abs="542.469178" CO2_abs="56190.085932" HC_abs="16.518628" PMx_abs="5.424522" NOx_abs="109.434408" fuel_abs="22.402121"/>
    </tripinfo>
    <tripinfo id="208001_208001_441" depart="27001.00" departLane="-83823403#2_0" departPos="5.10" departSpeed="0.00" departDelay="0.00" arrival="27034.00" arrivalLane="23015529#0_0" arrivalPos="184.87" arrivalSpeed="13.86" duration="33.00" routeLength="179.77" waitSteps="0" rerouteNo="2" devices="tripinfo_208001_208001_441 hbefa_208001_208001_441" vType="DEFAULT_VEHTYPE" vaporized="">
        <emissions CO_abs="1094.291745" CO2_abs="83848.359176" HC_abs="25.954980" PMx_abs="9.838913" NOx_abs="176.258434" fuel_abs="33.429053"/>
    </tripinfo>
    <tripinfo id="217202_217202_446" depart="27007.00" departLane="-83823403#2_0" departPos="5.10" departSpeed="0.00" departDelay="0.00" arrival="27034.00" arrivalLane="23015533_0" arrivalPos="110.79" arrivalSpeed="13.43" duration="27.00" routeLength="105.69" waitSteps="0" rerouteNo="3" devices="tripinfo_217202_217202_446 hbefa_217202_217202_446" vType="DEFAULT_VEHTYPE" vaporized="">
        <emissions CO_abs="869.433974" CO2_abs="72444.759003" HC_abs="21.864673" PMx_abs="7.851146" NOx_abs="148.882792" fuel_abs="28.882614"/>
    </tripinfo>
    <tripinfo id="113217_113217_402" depart="27009.00" departLane="23493176_0" departPos="5.10" departSpeed="0.00" departDelay="9.00" arrival="27037.00" arrivalLane="154755096_1" arrivalPos="66.91" arrivalSpeed="12.76" duration="28.00" routeLength="61.81" waitSteps="0" rerouteNo="7" devices="tripinfo_113217_113217_402 hbefa_113217_113217_402" vType="DEFAULT_VEHTYPE" vaporized="">
        <emissions CO_abs="641.561180" CO2_abs="58152.053291" HC_abs="17.823575" PMx_abs="6.012789" NOx_abs="116.087907" fuel_abs="23.184325"/>
    </tripinfo>
    <tripinfo id="154499_154499_420" depart="27000.00" departLane="28542995#0_0" departPos="5.10" departSpeed="0.00" departDelay="0.00" arrival="27038.00" arrivalLane="23493260#4_1" arrivalPos="126.60" arrivalSpeed="13.21" duration="38.00" routeLength="121.50" waitSteps="0" rerouteNo="9" devices="tripinfo_154499_154499_420 hbefa_154499_154499_420" vType="DEFAULT_VEHTYPE" vaporized="">
        <emissions CO_abs="973.364803" CO2_abs="92455.695982" HC_abs="26.474616" PMx_abs="9.583760" NOx_abs="185.752135" fuel_abs="36.860673"/>
    </tripinfo>
    <tripinfo id="103637_103637_397" depart="27000.00" departLane="145474196#1_0" departPos="5.10" departSpeed="0.00" departDelay="0.00" arrival="27038.00" arrivalLane="150039002#2_0" arrivalPos="249.40" arrivalSpeed="12.91" duration="38.00" routeLength="244.30" waitSteps="1" rerouteNo="5" devices="tripinfo_103637_103637_397 hbefa_103637_103637_397" vType="DEFAULT_VEHTYPE" vaporized="">
        <emissions CO_abs="1163.916031" CO2_abs="95587.502458" HC_abs="29.038547" PMx_abs="10.516048" NOx_abs="197.025021" fuel_abs="38.109272"/>
    </tripinfo>
    <tripinfo id="238887_238887_451" depart="27010.00" departLane="-83823403#2_0" departPos="5.10" departSpeed="0.00" departDelay="0.00" arrival="27039.00" arrivalLane="23015533_0" arrivalPos="110.79" arrivalSpeed="13.48" duration="29.00" routeLength="105.69" waitSteps="0" rerouteNo="3" devices="tripinfo_238887_238887_451 hbefa_238887_238887_451" vType="DEFAULT_VEHTYPE" vaporized="">
        <emissions CO_abs="854.928163" CO2_abs="69866.448499" HC_abs="21.375327" PMx_abs="7.790943" NOx_abs="144.129605" fuel_abs="27.854680"/>
    </tripinfo>
    <tripinfo id="218769_218769_446" depart="27003.00" departLane="-55940134_0" departPos="5.10" departSpeed="0.00" departDelay="3.00" arrival="27040.00" arrivalLane="-144935692#1_1" arrivalPos="103.61" arrivalSpeed="13.33" duration="37.00" routeLength="98.51" waitSteps="0" rerouteNo="7" devices="tripinfo_218769_218769_446 hbefa_218769_218769_446" vType="DEFAULT_VEHTYPE" vaporized="">
        <emissions CO_abs="629.037584" CO2_abs="75546.970444" HC_abs="19.727996" PMx_abs="7.069903" NOx_abs="146.410487" fuel_abs="30.119432"/>
    </tripinfo>
    <tripinfo id="123467_123467_406" depart="27009.00" departLane="23471158#6_0" departPos="5.10" departSpeed="0.00" departDelay="9.00" arrival="27040.00" arrivalLane="32856811#2_0" arrivalPos="144.91" arrivalSpeed="12.98" duration="31.00" routeLength="139.81" waitSteps="0" rerouteNo="5" devices="tripinfo_123467_123467_406 hbefa_123467_123467_406" vType="DEFAULT_VEHTYPE" vaporized="">
        <emissions CO_abs="2030.414090" CO2_abs="127981.408857" HC_abs="41.705945" PMx_abs="16.070042" NOx_abs="281.246476" fuel_abs="51.024265"/>
    </tripinfo>
    <tripinfo id="68737_68737_381" depart="27013.00" departLane="23493176_0" departPos="5.10" departSpeed="0.00" departDelay="13.00" arrival="27040.00" arrivalLane="23493176_1" arrivalPos="83.31" arrivalSpeed="4.68" duration="27.00" routeLength="78.21" waitSteps="11" rerouteNo="1" devices="tripinfo_68737_68737_381 hbefa_68737_68737_381" vType="DEFAULT_VEHTYPE" vaporized="">
        <emissions CO_abs="310.613806" CO2_abs="27350.751091" HC_abs="10.190164" PMx_abs="2.545199" NOx_abs="51.405858" fuel_abs="10.904319"/>
    </tripinfo>
    <tripinfo id="171544_171544_426" depart="27000.00" departLane="187965762#1_0" departPos="5.10" departSpeed="0.00" departDelay="0.00" arrival="27040.00" arrivalLane="23800191#0_0" arrivalPos="143.94" arrivalSpeed="13.26" duration="40.00" routeLength="138.84" waitSteps="0" rerouteNo="7" devices="tripinfo_171544_171544_426 hbefa_171544_171544_426" vType="DEFAULT_VEHTYPE" vaporized="">
        <emissions CO_abs="637.351728" CO2_abs="68848.812024" HC_abs="19.586613" PMx_abs="6.258904" NOx_abs="133.290273" fuel_abs="27.448965"/>
    </tripinfo>
    <tripinfo id="138122_138122_412" depart="27009.00" departLane="131651824_0" departPos="5.10" departSpeed="0.00" departDelay="9.00" arrival="27040.00" arrivalLane="130875842_0" arrivalPos="81.21" arrivalSpeed="13.58" duration="31.00" routeLength="76.11" waitSteps="0" rerouteNo="5" devices="tripinfo_138122_138122_412 hbefa_138122_138122_412" vType="DEFAULT_VEHTYPE" vaporized="">
        <emissions CO_abs="872.233885" CO2_abs="73714.019891" HC_abs="22.202247" PMx_abs="7.908736" NOx_abs="150.816810" fuel_abs="29.388649"/>
    </tripinfo>
    <tripinfo id="184987_184987_431" depart="27000.00" departLane="-186463490#0_0" departPos="5.10" departSpeed="0.00" departDelay="0.00" arrival="27042.00" arrivalLane="-144935692#1_1" arrivalPos="103.61" arrivalSpeed="13.14" duration="42.00" routeLength="98.51" waitSteps="0" rerouteNo="9" devices="tripinfo_184987_184987_431 hbefa_184987_184987_431" vType="DEFAULT_VEHTYPE" vaporized="">
        <emissions CO_abs="838.785331" CO2_abs="80580.812468" HC_abs="22.810830" PMx_abs="8.147126" NOx_abs="161.447396" fuel_abs="32.126341"/>
    </tripinfo>
    <tripinfo id="224931_224931_449" depart="27026.00" departLane="-28523795_0" departPos="5.10" departSpeed="0.00" departDelay="0.00" arrival="27043.00" arrivalLane="-28523795_0" arrivalPos="192.02" arrivalSpeed="13.17" duration="17.00" routeLength="186.92" waitSteps="0" rerouteNo="1" devices="tripinfo_224931_224931_449 hbefa_224931_224931_449" vType="DEFAULT_VEHTYPE" vaporized="">
        <emissions CO_abs="577.582210" CO2_abs="48339.624087" HC_abs="14.496155" PMx_abs="5.298778" NOx_abs="99.487767" fuel_abs="19.272268"/>
    </tripinfo>
    <tripinfo id="211099_211099_442" depart="27013.00" departLane="166155712#0_0" departPos="5.10" departSpeed="0.00" departDelay="0.00" arrival="27043.00" arrivalLane="33469672_0" arrivalPos="142.78" arrivalSpeed="13.61" duration="30.00" routeLength="137.68" waitSteps="0" rerouteNo="3" devices="tripinfo_211099_211099_442 hbefa_211099_211099_442" vType="DEFAULT_VEHTYPE" vaporized="">
        <emissions CO_abs="935.220535" CO2_abs="80949.663444" HC_abs="23.981619" PMx_abs="8.734557" NOx_abs="165.402894" fuel_abs="32.273391"/>
    </tripinfo>
    <tripinfo id="244420_244420_453" depart="27015.00" departLane="-165515969#3_0" departPos="5.10" departSpeed="0.00" departDelay="0.00" arrival="27043.00" arrivalLane="-165511531#0_0" arrivalPos="53.73" arrivalSpeed="13.05" duration="28.00" routeLength="48.63" waitSteps="0" rerouteNo="5" devices="tripinfo_244420_244420_453 hbefa_244420_244420_453" vType="DEFAULT_VEHTYPE" vaporized="">
        <emissions CO_abs="2354.703074" CO2_abs="140516.378526" HC_abs="47.572785" PMx_abs="18.484084" NOx_abs="313.248365" fuel_abs="56.021746"/>
    </tripinfo>
    <tripinfo id="212327_212327_442" depart="27014.00" departLane="198147972_0" departPos="5.10" departSpeed="0.00" departDelay="0.00" arrival="27043.00" arrivalLane="4353628#1_0" arrivalPos="68.95" arrivalSpeed="13.68" duration="29.00" routeLength="63.85" waitSteps="0" rerouteNo="7" devices="tripinfo_212327_212327_442 hbefa_212327_212327_442" vType="DEFAULT_VEHTYPE" vaporized="">
        <emissions CO_abs="584.847801" CO2_abs="62937.267285" HC_abs="17.209480" PMx_abs="6.023415" NOx_abs="123.549372" fuel_abs="25.092131"/>
    </tripinfo>
    <tripinfo id="101376_101376_396" depart="27003.00" departLane="23471158#0_0" departPos="5.10" departSpeed="0.00" departDelay="3.00" arrival="27044.00" arrivalLane="32856811#2_0" arrivalPos="144.91" arrivalSpeed="12.83" duration="41.00" routeLength="139.81" waitSteps="0" rerouteNo="7" devices="tripinfo_101376_101376_396 hbefa_101376_101376_396" vType="DEFAULT_VEHTYPE" vaporized="">
        <emissions CO_abs="2949.352998" CO2_abs="179355.023958" HC_abs="59.056832" PMx_abs="22.678170" NOx_abs="397.669390" fuel_abs="71.506159"/>
    </tripinfo>
    <tripinfo id="144652_144652_416" depart="27000.00" departLane="3065455_0" departPos="5.10" departSpeed="0.00" departDelay="0.00" arrival="27044.00" arrivalLane="130659365_0" arrivalPos="223.21" arrivalSpeed="6.66" duration="44.00" routeLength="218.11" waitSteps="3" rerouteNo="5" devices="tripinfo_144652_144652_416 hbefa_144652_144652_416" vType="DEFAULT_VEHTYPE" vaporized="">
        <emissions CO_abs="663.799730" CO2_abs="70173.329416" HC_abs="19.868213" PMx_abs="6.604581" NOx_abs="136.917472" fuel_abs="27.977034"/>
    </tripinfo>
    <tripinfo id="197472_197472_436" depart="27006.00" departLane="23800191#2_0" departPos="5.10" departSpeed="0.00" departDelay="6.00" arrival="27044.00" arrivalLane="130875842_0" arrivalPos="81.21" arrivalSpeed="13.66" duration="38.00" routeLength="76.11" waitSteps="0" rerouteNo="7" devices="tripinfo_197472_197472_436 hbefa_197472_197472_436" vType="DEFAULT_VEHTYPE" vaporized="">
        <emissions CO_abs="1039.132484" CO2_abs="87204.788470" HC_abs="26.534181" PMx_abs="9.429674" NOx_abs="178.503987" fuel_abs="34.767209"/>
    </tripinfo>
    <tripinfo id="142703_142703_415" depart="27034.00" departLane="129861628#0_0" departPos="5.10" departSpeed="0.00" departDelay="34.00" arrival="27045.00" arrivalLane="129861628#0_0" arrivalPos="107.21" arrivalSpeed="13.29" duration="11.00" routeLength="102.11" waitSteps="0" rerouteNo="1" devices="tripinfo_142703_142703_415 hbefa_142703_142703_415" vType="DEFAULT_VEHTYPE" vaporized="">
        <emissions CO_abs="507.375975" CO2_abs="37960.388505" HC_abs="12.054944" PMx_abs="4.450820" NOx_abs="79.822209" fuel_abs="15.134223"/>
    </tripinfo>
    <tripinfo id="245947_245947_454" depart="27016.00" departLane="-83823403#2_0" departPos="5.10" departSpeed="0.00" departDelay="0.00" arrival="27045.00" arrivalLane="23015533_0" arrivalPos="110.79" arrivalSpeed="12.91" duration="29.00" routeLength="105.69" waitSteps="0" rerouteNo="3" devices="tripinfo_245947_245947_454 hbefa_245947_245947_454" vType="DEFAULT_VEHTYPE" vaporized="">
        <emissions CO_abs="933.087380" CO2_abs="77912.658567" HC_abs="23.547663" PMx_abs="8.602135" NOx_abs="160.266277" fuel_abs="31.062581"/>
    </tripinfo>
    <tripinfo id="101794_101794_396" depart="27002.00" departLane="36454807#3-AddedOnRampEdge_0" departPos="5.10" departSpeed="0.00" departDelay="2.00" arrival="27045.00" arrivalLane="2832027#0_0" arrivalPos="102.82" arrivalSpeed="8.05" duration="43.00" routeLength="97.72" waitSteps="0" rerouteNo="9" devices="tripinfo_101794_101794_396 hbefa_101794_101794_396" vType="DEFAULT_VEHTYPE" vaporized="">
        <emissions CO_abs="799.475536" CO2_abs="75009.495110" HC_abs="22.247527" PMx_abs="7.460367" NOx_abs="149.157825" fuel_abs="29.905133"/>
    </tripinfo>
    <tripinfo id="244003_244003_453" depart="27029.00" departLane="-28523795_0" departPos="5.10" departSpeed="0.00" departDelay="0.00" arrival="27047.00" arrivalLane="-28523795_0" arrivalPos="192.02" arrivalSpeed="13.58" duration="18.00" routeLength="186.92" waitSteps="0" rerouteNo="1" devices="tripinfo_244003_244003_453 hbefa_244003_244003_453" vType="DEFAULT_VEHTYPE" vaporized="">
        <emissions CO_abs="568.875525" CO2_abs="44458.224974" HC_abs="13.889229" PMx_abs="5.018932" NOx_abs="92.436369" fuel_abs="17.724811"/>
    </tripinfo>
    <tripinfo id="221885_221885_448" depart="27017.00" departLane="-175607927#0_0" departPos="5.10" departSpeed="0.00" departDelay="0.00" arrival="27047.00" arrivalLane="-29214406_0" arrivalPos="179.38" arrivalSpeed="13.38" duration="30.00" routeLength="174.28" waitSteps="0" rerouteNo="3" devices="tripinfo_221885_221885_448 hbefa_221885_221885_448" vType="DEFAULT_VEHTYPE" vaporized="">