<?xml version="1.0" encoding="UTF-8"?>

<!-- generated on Tue Feb 25 12:27:04 2014 by SUMO sumo Version 0.19.0
<?xml version="1.0" encoding="UTF-8"?>

<configuration xmlns:xsi="http://www.w3.org/2001/XMLSchema-instance" xsi:noNamespaceSchemaLocation="http://sumo-sim.org/xsd/sumoConfiguration.xsd">

    <input>
        <net-file value="data/map.net.xml"/>
        <route-files value="data/map.rou.xml"/>
    </input>

    <output>
        <tripinfo-output value="data/maptripinfo.out.xml"/>
        <save-state.prefix value="data/state"/>
    </output>

    <time>
        <begin value="27000"/>
        <end value="27900"/>
    </time>

    <processing>
        <route-steps value="200"/>
        <scale value="0.8"/>
        <time-to-teleport value="300"/>
        <lanechange.allow-swap value="true"/>
    </processing>

    <report>
        <verbose value="true"/>
        <no-warnings value="false"/>
        <no-step-log value="true"/>
    </report>

    <emissions>
        <device.hbefa.probability value="1"/>
    </emissions>

    <traci_server>
        <remote-port value="8814"/>
    </traci_server>

</configuration>
-->

<tripinfos>
    <tripinfo id="136022_136022_411" depart="27003.00" departLane="23800191#2_0" departPos="5.10" departSpeed="0.00" departDelay="3.00" arrival="27009.00" arrivalLane="23800191#2_0" arrivalPos="38.41" arrivalSpeed="9.04" duration="6.00" routeLength="33.31" waitSteps="0" rerouteNo="0" devices="tripinfo_136022_136022_411 hbefa_136022_136022_411" vType="DEFAULT_VEHTYPE" vaporized="">
        <emissions CO_abs="185.360283" CO2_abs="15770.136816" HC_abs="5.217217" PMx_abs="1.592998" NOx_abs="31.263366" fuel_abs="6.287308"/>
    </tripinfo>
    <tripinfo id="182087_182087_431" depart="27000.00" departLane="4380937#2_0" departPos="5.10" departSpeed="0.00" departDelay="0.00" arrival="27011.00" arrivalLane="4380937#3_0" arrivalPos="72.76" arrivalSpeed="13.26" duration="11.00" routeLength="67.66" waitSteps="0" rerouteNo="1" devices="tripinfo_182087_182087_431 hbefa_182087_182087_431" vType="DEFAULT_VEHTYPE" vaporized="">
        <emissions CO_abs="469.278227" CO2_abs="35651.664580" HC_abs="11.255847" PMx_abs="4.242656" NOx_abs="74.803559" fuel_abs="14.213770"/>
    </tripinfo>
    <tripinfo id="72912_72912_384" depart="27003.00" departLane="9207803_0" departPos="5.10" departSpeed="0.00" departDelay="3.00" arrival="27014.00" arrivalLane="9207803_0" arrivalPos="69.23" arrivalSpeed="7.13" duration="11.00" routeLength="64.13" waitSteps="0" rerouteNo="0" devices="tripinfo_72912_72912_384 hbefa_72912_72912_384" vType="DEFAULT_VEHTYPE" vaporized="">
        <emissions CO_abs="175.033887" CO2_abs="18383.835525" HC_abs="5.716225" PMx_abs="1.692760" NOx_abs="35.015403" fuel_abs="7.329350"/>
    </tripinfo>
    <tripinfo id="251564_251564_457" depart="27002.00" departLane="51113317_0" departPos="5.10" departSpeed="0.00" departDelay="0.00" arrival="27014.00" arrivalLane="51113317_0" arrivalPos="125.08" arrivalSpeed="13.51" duration="12.00" routeLength="119.98" waitSteps="0" rerouteNo="0" devices="tripinfo_251564_251564_457 hbefa_251564_251564_457" vType="DEFAULT_VEHTYPE" vaporized="">
        <emissions CO_abs="456.095205" CO2_abs="39317.140089" HC_abs="11.807309" PMx_abs="4.282006" NOx_abs="80.158916" fuel_abs="15.675141"/>
    </tripinfo>
    <tripinfo id="105435_105435_398" depart="27003.00" departLane="145474196#1_0" departPos="5.10" departSpeed="0.00" departDelay="3.00" arrival="27015.00" arrivalLane="145474196#1_0" arrivalPos="94.12" arrivalSpeed="11.00" duration="12.00" routeLength="89.02" waitSteps="0" rerouteNo="0" devices="tripinfo_105435_105435_398 hbefa_105435_105435_398" vType="DEFAULT_VEHTYPE" vaporized="">
        <emissions CO_abs="672.899688" CO2_abs="45519.154132" HC_abs="15.229409" PMx_abs="5.687327" NOx_abs="97.822149" fuel_abs="18.147782"/>
    </tripinfo>
    <tripinfo id="92380_92380_392" depart="27000.00" departLane="-154755073#3_0" departPos="5.10" departSpeed="0.00" departDelay="0.00" arrival="27015.00" arrivalLane="-154755073#3_0" arrivalPos="102.52" arrivalSpeed="7.24" duration="15.00" routeLength="97.42" waitSteps="0" rerouteNo="0" devices="tripinfo_92380_92380_392 hbefa_92380_92380_392" vType="DEFAULT_VEHTYPE" vaporized="">
        <emissions CO_abs="248.366094" CO2_abs="22944.684833" HC_abs="7.225277" PMx_abs="2.407448" NOx_abs="45.252135" fuel_abs="9.147690"/>
    </tripinfo>
    <tripinfo id="84049_84049_390" depart="27006.00" departLane="9207803_0" departPos="5.10" departSpeed="0.00" departDelay="6.00" arrival="27016.00" arrivalLane="9207803_0" arrivalPos="69.23" arrivalSpeed="7.66" duration="10.00" routeLength="64.13" waitSteps="0" rerouteNo="0" devices="tripinfo_84049_84049_390 hbefa_84049_84049_390" vType="DEFAULT_VEHTYPE" vaporized="">
        <emissions CO_abs="167.054477" CO2_abs="16814.000951" HC_abs="5.248401" PMx_abs="1.564928" NOx_abs="32.274493" fuel_abs="6.703481"/>
    </tripinfo>
    <tripinfo id="105964_105964_399" depart="27007.00" departLane="145474196#1_0" departPos="5.10" departSpeed="0.00" departDelay="7.00" arrival="27017.00" arrivalLane="145474196#1_0" arrivalPos="94.12" arrivalSpeed="13.11" duration="10.00" routeLength="89.02" waitSteps="0" rerouteNo="0" devices="tripinfo_105964_105964_399 hbefa_105964_105964_399" vType="DEFAULT_VEHTYPE" vaporized="">
        <emissions CO_abs="665.103024" CO2_abs="42688.507228" HC_abs="14.362802" PMx_abs="5.649751" NOx_abs="93.613681" fuel_abs="17.019248"/>
    </tripinfo>
    <tripinfo id="232041_232041_451" depart="27002.00" departLane="28523795_0" departPos="5.10" departSpeed="0.00" departDelay="0.00" arrival="27019.00" arrivalLane="28523795_0" arrivalPos="192.02" arrivalSpeed="12.68" duration="17.00" routeLength="186.92" waitSteps="0" rerouteNo="0" devices="tripinfo_232041_232041_451 hbefa_232041_232041_451" vType="DEFAULT_VEHTYPE" vaporized="">
        <emissions CO_abs="490.588634" CO2_abs="41845.119311" HC_abs="12.561083" PMx_abs="4.516336" NOx_abs="85.542004" fuel_abs="16.683007"/>
    </tripinfo>
    <tripinfo id="135880_135880_411" depart="27000.00" departLane="150039002#2_0" departPos="5.10" departSpeed="0.00" departDelay="0.00" arrival="27022.00" arrivalLane="150039002#2_0" arrivalPos="249.40" arrivalSpeed="13.41" duration="22.00" routeLength="244.30" waitSteps="0" rerouteNo="0" devices="tripinfo_135880_135880_411 hbefa_135880_135880_411" vType="DEFAULT_VEHTYPE" vaporized="">
        <emissions CO_abs="536.096082" CO2_abs="54016.278205" HC_abs="15.153879" PMx_abs="5.457485" NOx_abs="107.413256" fuel_abs="21.535466"/>
    </tripinfo>
    <tripinfo id="219187_219187_446" depart="27000.00" departLane="144935690_0" departPos="5.10" departSpeed="0.00" departDelay="0.00" arrival="27022.00" arrivalLane="25997632_0" arrivalPos="136.14" arrivalSpeed="13.05" duration="22.00" routeLength="131.04" waitSteps="0" rerouteNo="2" devices="tripinfo_219187_219187_446 hbefa_219187_219187_446" vType="DEFAULT_VEHTYPE" vaporized="">
        <emissions CO_abs="534.577646" CO2_abs="49409.168297" HC_abs="14.314510" PMx_abs="5.264825" NOx_abs="99.868308" fuel_abs="19.698681"/>
    </tripinfo>
    <tripinfo id="206737_206737_440" depart="27007.00" departLane="-29206900_0" departPos="5.10" departSpeed="0.00" departDelay="0.00" arrival="27022.00" arrivalLane="29207110_0" arrivalPos="28.94" arrivalSpeed="13.54" duration="15.00" routeLength="23.84" waitSteps="0" rerouteNo="1" devices="tripinfo_206737_206737_440 hbefa_206737_206737_440" vType="DEFAULT_VEHTYPE" vaporized="">
        <emissions CO_abs="601.782051" CO2_abs="42600.687056" HC_abs="14.179063" PMx_abs="5.261119" NOx_abs="90.367583" fuel_abs="16.984233"/>
    </tripinfo>
    <tripinfo id="110327_110327_401" depart="27000.00" departLane="53212166#0_0" departPos="5.10" departSpeed="0.00" departDelay="0.00" arrival="27023.00" arrivalLane="28542995#2_2" arrivalPos="61.74" arrivalSpeed="13.13" duration="23.00" routeLength="56.64" waitSteps="0" rerouteNo="3" devices="tripinfo_110327_110327_401 hbefa_110327_110327_401" vType="DEFAULT_VEHTYPE" vaporized="">
        <emissions CO_abs="491.219185" CO2_abs="50656.944048" HC_abs="14.253281" PMx_abs="5.039670" NOx_abs="99.900384" fuel_abs="20.196149"/>
    </tripinfo>
    <tripinfo id="225242_225242_449" depart="27000.00" departLane="154755124_0" departPos="5.10" departSpeed="0.00" departDelay="0.00" arrival="27024.00" arrivalLane="4380937#3_1" arrivalPos="72.76" arrivalSpeed="13.33" duration="24.00" routeLength="67.66" waitSteps="0" rerouteNo="2" devices="tripinfo_225242_225242_449 hbefa_225242_225242_449" vType="DEFAULT_VEHTYPE" vaporized="">
        <emissions CO_abs="721.513894" CO2_abs="55585.564545" HC_abs="17.776240" PMx_abs="6.429659" NOx_abs="115.611555" fuel_abs="22.161106"/>
    </tripinfo>
    <tripinfo id="148867_148867_417" depart="27006.00" departLane="3065455_0" departPos="5.10" departSpeed="0.00" departDelay="6.00" arrival="27024.00" arrivalLane="23800191#0_0" arrivalPos="143.94" arrivalSpeed="13.23" duration="18.00" routeLength="138.84" waitSteps="0" rerouteNo="1" devices="tripinfo_148867_148867_417 hbefa_148867_148867_417" vType="DEFAULT_VEHTYPE" vaporized="">
        <emissions CO_abs="540.067611" CO2_abs="47697.643698" HC_abs="14.001789" PMx_abs="5.273223" NOx_abs="97.427092" fuel_abs="19.016321"/>
    </tripinfo>
    <tripinfo id="141415_141415_415" depart="27003.00" departLane="150039002#2_0" departPos="5.10" departSpeed="0.00" departDelay="3.00" arrival="27025.00" arrivalLane="150039002#2_0" arrivalPos="249.40" arrivalSpeed="13.56" duration="22.00" routeLength="244.30" waitSteps="0" rerouteNo="0" devices="tripinfo_141415_141415_415 hbefa_141415_141415_415" vType="DEFAULT_VEHTYPE" vaporized="">
        <emissions CO_abs="549.367041" CO2_abs="52682.397765" HC_abs="15.049802" PMx_abs="5.387980" NOx_abs="105.527367" fuel_abs="21.003668"/>
    </tripinfo>
    <tripinfo id="225541_225541_450" depart="27000.00" departLane="9207803_0" departPos="5.10" departSpeed="0.00" departDelay="0.00" arrival="27025.00" arrivalLane="154755073#3_0" arrivalPos="102.52" arrivalSpeed="7.72" duration="25.00" routeLength="97.42" waitSteps="0" rerouteNo="1" devices="tripinfo_225541_225541_450 hbefa_225541_225541_450" vType="DEFAULT_VEHTYPE" vaporized="">
        <emissions CO_abs="329.269335" CO2_abs="34600.883794" HC_abs="10.488454" PMx_abs="3.232713" NOx_abs="66.356825" fuel_abs="13.794836"/>
    </tripinfo>
    <tripinfo id="75851_75851_386" depart="27002.00" departLane="28542995#2_0" departPos="5.10" departSpeed="0.00" departDelay="2.00" arrival="27026.00" arrivalLane="23493181#0_0" arrivalPos="88.20" arrivalSpeed="11.28" duration="24.00" routeLength="83.10" waitSteps="0" rerouteNo="1" devices="tripinfo_75851_75851_386 hbefa_75851_75851_386" vType="DEFAULT_VEHTYPE" vaporized="">
        <emissions CO_abs="571.520451" CO2_abs="49653.573224" HC_abs="15.772785" PMx_abs="5.188739" NOx_abs="99.362373" fuel_abs="19.796110"/>
    </tripinfo>
    <tripinfo id="136596_136596_411" depart="27003.00" departLane="131651824_0" departPos="5.10" departSpeed="0.00" departDelay="3.00" arrival="27027.00" arrivalLane="4400211#0_0" arrivalPos="197.56" arrivalSpeed="12.30" duration="24.00" routeLength="192.46" waitSteps="0" rerouteNo="1" devices="tripinfo_136596_136596_411 hbefa_136596_136596_411" vType="DEFAULT_VEHTYPE" vaporized="">
        <emissions CO_abs="676.933663" CO2_abs="61528.703465" HC_abs="18.019132" PMx_abs="6.425354" NOx_abs="124.299953" fuel_abs="24.530552"/>
    </tripinfo>
    <tripinfo id="220353_220353_447" depart="27001.00" departLane="-165515969#3_0" departPos="5.10" departSpeed="0.00" departDelay="0.00" arrival="27027.00" arrivalLane="-165511531#0_0" arrivalPos="53.73" arrivalSpeed="13.36" duration="26.00" routeLength="48.63" waitSteps="0" rerouteNo="2" devices="tripinfo_220353_220353_447 hbefa_220353_220353_447" vType="DEFAULT_VEHTYPE" vaporized="">
        <emissions CO_abs="2341.461089" CO2_abs="136028.450800" HC_abs="46.517638" PMx_abs="18.408944" NOx_abs="306.033592" fuel_abs="54.232477"/>
    </tripinfo>
    <tripinfo id="162999_162999_422" depart="27000.00" departLane="150031230#2_0" departPos="5.10" departSpeed="0.00" departDelay="0.00" arrival="27029.00" arrivalLane="129833341#0_1" arrivalPos="129.85" arrivalSpeed="13.68" duration="29.00" routeLength="124.75" waitSteps="0" rerouteNo="1" devices="tripinfo_162999_162999_422 hbefa_162999_162999_422" vType="DEFAULT_VEHTYPE" vaporized="">
        <emissions CO_abs="877.114165" CO2_abs="69203.279866" HC_abs="21.404709" PMx_abs="7.946121" NOx_abs="144.140592" fuel_abs="27.590284"/>
    </tripinfo>
    <tripinfo id="134089_134089_411" depart="27000.00" departLane="23800191#2_0" departPos="5.10" departSpeed="0.00" departDelay="0.00" arrival="27029.00" arrivalLane="4400211#0_0" arrivalPos="197.56" arrivalSpeed="13.43" duration="29.00" routeLength="192.46" waitSteps="0" rerouteNo="2" devices="tripinfo_134089_134089_411 hbefa_134089_134089_411" vType="DEFAULT_VEHTYPE" vaporized="">
        <emissions CO_abs="901.067033" CO2_abs="74718.741949" HC_abs="22.667839" PMx_abs="8.256035" NOx_abs="153.843484" fuel_abs="29.789215"/>
    </tripinfo>
    <tripinfo id="84113_84113_390" depart="27000.00" departLane="150031205#0_0" departPos="5.10" departSpeed="0.00" departDelay="0.00" arrival="27029.00" arrivalLane="23471158#10_0" arrivalPos="144.68" arrivalSpeed="26.88" duration="29.00" routeLength="139.58" waitSteps="1" rerouteNo="3" devices="tripinfo_84113_84113_390 hbefa_84113_84113_390" vType="DEFAULT_VEHTYPE" vaporized="">
        <emissions CO_abs="2866.109162" CO2_abs="167336.112144" HC_abs="56.041387" PMx_abs="20.970881" NOx_abs="372.814833" fuel_abs="66.714426"/>
    </tripinfo>
    <tripinfo id="118681_118681_405" depart="27000.00" departLane="23471158#6_0" departPos="5.10" departSpeed="0.00" departDelay="0.00" arrival="27030.00" arrivalLane="32856811#2_0" arrivalPos="144.91" arrivalSpeed="12.84" duration="30.00" routeLength="139.81" waitSteps="0" rerouteNo="2" devices="tripinfo_118681_118681_405 hbefa_118681_118681_405" vType="DEFAULT_VEHTYPE" vaporized="">
        <emissions CO_abs="1979.698766" CO2_abs="126973.216160" HC_abs="41.088291" PMx_abs="15.780959" NOx_abs="277.940150" fuel_abs="50.622309"/>
    </tripinfo>
    <tripinfo id="188835_188835_434" depart="27006.00" departLane="187965762#1_0" departPos="5.10" departSpeed="0.00" departDelay="6.00" arrival="27030.00" arrivalLane="187965762#2_0" arrivalPos="85.18" arrivalSpeed="7.70" duration="24.00" routeLength="80.08" waitSteps="0" rerouteNo="1" devices="tripinfo_188835_188835_434 hbefa_188835_188835_434" vType="DEFAULT_VEHTYPE" vaporized="">
        <emissions CO_abs="220.656633" CO2_abs="33482.157862" HC_abs="9.333320" PMx_abs="2.564502" NOx_abs="60.335371" fuel_abs="13.348819"/>
    </tripinfo>
    <tripinfo id="122617_122617_406" depart="27000.00" departLane="131651824_0" departPos="5.10" departSpeed="0.00" departDelay="0.00" arrival="27031.00" arrivalLane="130875842_0" arrivalPos="81.21" arrivalSpeed="13.46" duration="31.00" routeLength="76.11" waitSteps="0" rerouteNo="2" devices="tripinfo_122617_122617_406 hbefa_122617_122617_406" vType="DEFAULT_VEHTYPE" vaporized="">
        <emissions CO_abs="979.766294" CO2_abs="80589.740790" HC_abs="24.383504" PMx_abs="8.977218" NOx_abs="166.444356" fuel_abs="32.129893"/>
    </tripinfo>
    <tripinfo id="104726_104726_398" depart="27000.00" departLane="23471158#5_0" departPos="5.10" departSpeed="0.00" departDelay="0.00" arrival="27032.00" arrivalLane="32856811#2_0" arrivalPos="144.91" arrivalSpeed="13.21" duration="32.00" routeLength="139.81" waitSteps="0" rerouteNo="3" devices="tripinfo_104726_104726_398 hbefa_104726_104726_398" vType="DEFAULT_VEHTYPE" vaporized="">
        <emissions CO_abs="2024.496675" CO2_abs="132911.483669" HC_abs="42.606657" PMx_abs="15.515153" NOx_abs="287.400966" fuel_abs="52.989820"/>
    </tripinfo>
    <tripinfo id="187318_187318_433" depart="27013.00" departLane="-83823403#2_0" departPos="5.10" departSpeed="0.00" departDelay="0.00" arrival="27032.00" arrivalLane="-83823403#2_0" arrivalPos="184.87" arrivalSpeed="10.07" duration="19.00" routeLength="179.77" waitSteps="0" rerouteNo="0" devices="tripinfo_187318_187318_433 hbefa_187318_187318_433" vType="DEFAULT_VEHTYPE" vaporized="">
        <emissions CO_abs="680.130925" CO2_abs="50397.935984" HC_abs="16.129730" PMx_abs="5.915750" NOx_abs="106.061444" fuel_abs="20.092880"/>
    </tripinfo>
    <tripinfo id="212444_212444_443" depart="27003.00" departLane="166155712#0_0" departPos="5.10" departSpeed="0.00" departDelay="0.00" arrival="27032.00" arrivalLane="33469672_0" arrivalPos="142.78" arrivalSpeed="13.62" duration="29.00" routeLength="137.68" waitSteps="0" rerouteNo="1" devices="tripinfo_212444_212444_443 hbefa_212444_212444_443" vType="DEFAULT_VEHTYPE" vaporized="">
        <emissions CO_abs="967.094414" CO2_abs="81042.355083" HC_abs="24.079984" PMx_abs="9.188637" NOx_abs="167.604711" fuel_abs="32.310347"/>
    </tripinfo>
    <tripinfo id="103637_103637_397" depart="27000.00" departLane="145474196#1_0" departPos="5.10" departSpeed="0.00" departDelay="0.00" arrival="27034.00" arrivalLane="150039002#2_1" arrivalPos="249.40" arrivalSpeed="13.53" duration="34.00" routeLength="244.30" waitSteps="0" rerouteNo="2" devices="tripinfo_103637_103637_397 hbefa_103637_103637_397" vType="DEFAULT_VEHTYPE" vaporized="">
        <emissions CO_abs="939.487937" CO2_abs="85461.373117" HC_abs="24.897701" PMx_abs="8.876331" NOx_abs="172.696822" fuel_abs="34.072142"/>
    </tripinfo>
    <tripinfo id="208001_208001_441" depart="27001.00" departLane="-83823403#2_0" departPos="5.10" departSpeed="0.00" departDelay="0.00" arrival="27034.00" arrivalLane="23015529#0_0" arrivalPos="184.87" arrivalSpeed="13.25" duration="33.00" routeLength="179.77" waitSteps="0" rerouteNo="1" devices="tripinfo_208001_208001_441 hbefa_208001_208001_441" vType="DEFAULT_VEHTYPE" vaporized="">
        <emissions CO_abs="1015.054002" CO2_abs="80942.246889" HC_abs="24.679450" PMx_abs="9.218964" NOx_abs="168.584627" fuel_abs="32.270432"/>
    </tripinfo>
    <tripinfo id="217202_217202_446" depart="27007.00" departLane="-83823403#2_0" departPos="5.10" departSpeed="0.00" departDelay="0.00" arrival="27034.00" arrivalLane="23015533_0" arrivalPos="110.79" arrivalSpeed="13.37" duration="27.00" routeLength="105.69" waitSteps="0" rerouteNo="1" devices="tripinfo_217202_217202_446 hbefa_217202_217202_446" vType="DEFAULT_VEHTYPE" vaporized="">
        <emissions CO_abs="816.952290" CO2_abs="74505.978147" HC_abs="21.622397" PMx_abs="7.872999" NOx_abs="150.913270" fuel_abs="29.704394"/>
    </tripinfo>
    <tripinfo id="103310_103310_397" depart="27000.00" departLane="83703645_0" departPos="5.10" departSpeed="0.00" departDelay="0.00" arrival="27035.00" arrivalLane="23493177#0_0" arrivalPos="166.52" arrivalSpeed="7.63" duration="35.00" routeLength="161.42" waitSteps="0" rerouteNo="2" devices="tripinfo_103310_103310_397 hbefa_103310_103310_397" vType="DEFAULT_VEHTYPE" vaporized="">
        <emissions CO_abs="573.497128" CO2_abs="53759.377313" HC_abs="16.315635" PMx_abs="5.398409" NOx_abs="106.446574" fuel_abs="21.433033"/>
    </tripinfo>
    <tripinfo id="140107_140107_414" depart="27000.00" departLane="154755117_0" departPos="5.10" departSpeed="0.00" departDelay="0.00" arrival="27038.00" arrivalLane="23800191#0_0" arrivalPos="143.94" arrivalSpeed="13.71" duration="38.00" routeLength="138.84" waitSteps="11" rerouteNo="1" devices="tripinfo_140107_140107_414 hbefa_140107_140107_414" vType="DEFAULT_VEHTYPE" vaporized="">
        <emissions CO_abs="810.714449" CO2_abs="63855.958773" HC_abs="21.727666" PMx_abs="6.974042" NOx_abs="129.025579" fuel_abs="25.458385"/>
    </tripinfo>
    <tripinfo id="238887_238887_451" depart="27010.00" departLane="-83823403#2_0" departPos="5.10" departSpeed="0.00" departDelay="0.00" arrival="27039.00" arrivalLane="23015533_0" arrivalPos="110.79" arrivalSpeed="12.81" duration="29.00" routeLength="105.69" waitSteps="0" rerouteNo="1" devices="tripinfo_238887_238887_451 hbefa_238887_238887_451" vType="DEFAULT_VEHTYPE" vaporized="">
        <emissions CO_abs="923.843255" CO2_abs="74483.883510" HC_abs="22.822812" PMx_abs="8.541847" NOx_abs="154.543638" fuel_abs="29.695580"/>
    </tripinfo>
    <tripinfo id="218769_218769_446" depart="27003.00" departLane="-55940134_0" departPos="5.10" departSpeed="0.00" departDelay="3.00" arrival="27040.00" arrivalLane="-144935692#1_1" arrivalPos="103.61" arrivalSpeed="13.65" duration="37.00" routeLength="98.51" waitSteps="0" rerouteNo="3" devices="tripinfo_218769_218769_446 hbefa_218769_218769_446" vType="DEFAULT_VEHTYPE" vaporized="">
        <emissions CO_abs="692.263288" CO2_abs="77685.322293" HC_abs="20.724530" PMx_abs="7.289370" NOx_abs="151.880398" fuel_abs="30.971959"/>
    </tripinfo>
    <tripinfo id="154499_154499_420" depart="27000.00" departLane="28542995#0_0" departPos="5.10" departSpeed="0.00" departDelay="0.00" arrival="27040.00" arrivalLane="23493260#4_1" arrivalPos="126.60" arrivalSpeed="13.75" duration="40.00" routeLength="121.50" waitSteps="0" rerouteNo="4" devices="tripinfo_154499_154499_420 hbefa_154499_154499_420" vType="DEFAULT_VEHTYPE" vaporized="">
        <emissions CO_abs="1069.563285" CO2_abs="92681.321980" HC_abs="27.728131" PMx_abs="9.905478" NOx_abs="188.773768" fuel_abs="36.950622"/>
    </tripinfo>
    <tripinfo id="108705_108705_400" depart="27000.00" departLane="36454807#3_0" departPos="5.10" departSpeed="0.00" departDelay="0.00" arrival="27040.00" arrivalLane="32856811#2_0" arrivalPos="144.91" arrivalSpeed="13.54" duration="40.00" routeLength="139.81" waitSteps="0" rerouteNo="4" devices="tripinfo_108705_108705_400 hbefa_108705_108705_400" vType="DEFAULT_VEHTYPE" vaporized="">
        <emissions CO_abs="2676.183303" CO2_abs="167438.558672" HC_abs="55.006805" PMx_abs="21.263164" NOx_abs="368.740407" fuel_abs="66.755228"/>
    </tripinfo>
    <tripinfo id="171544_171544_426" depart="27000.00" departLane="187965762#1_0" departPos="5.10" departSpeed="0.00" departDelay="0.00" arrival="27041.00" arrivalLane="23800191#0_0" arrivalPos="143.94" arrivalSpeed="13.56" duration="41.00" routeLength="138.84" waitSteps="0" rerouteNo="3" devices="tripinfo_171544_171544_426 hbefa_171544_171544_426" vType="DEFAULT_VEHTYPE" vaporized="">
        <emissions CO_abs="548.441490" CO2_abs="66243.486845" HC_abs="18.243606" PMx_abs="5.876978" NOx_abs="126.229765" fuel_abs="26.410263"/>
    </tripinfo>
    <tripinfo id="138122_138122_412" depart="27009.00" departLane="131651824_0" departPos="5.10" departSpeed="0.00" departDelay="9.00" arrival="27041.00" arrivalLane="130875842_0" arrivalPos="81.21" arrivalSpeed="13.38" duration="32.00" routeLength="76.11" waitSteps="0" rerouteNo="2" devices="tripinfo_138122_138122_412 hbefa_138122_138122_412" vType="DEFAULT_VEHTYPE" vaporized="">
        <emissions CO_abs="864.912799" CO2_abs="75045.599116" HC_abs="22.317601" PMx_abs="8.125378" NOx_abs="153.159750" fuel_abs="29.919530"/>
    </tripinfo>
    <tripinfo id="184987_184987_431" depart="27000.00" departLane="-186463490#0_0" departPos="5.10" departSpeed="0.00" departDelay="0.00" arrival="27042.00" arrivalLane="-144935692#1_1" arrivalPos="103.61" arrivalSpeed="12.75" duration="42.00" routeLength="98.51" waitSteps="0" rerouteNo="4" devices="tripinfo_184987_184987_431 hbefa_184987_184987_431" vType="DEFAULT_VEHTYPE" vaporized="">
        <emissions CO_abs="584.553793" CO2_abs="78486.698993" HC_abs="19.993198" PMx_abs="6.621926" NOx_abs="148.775387" fuel_abs="31.291458"/>
    </tripinfo>
    <tripinfo id="244420_244420_453" depart="27015.00" departLane="-165515969#3_0" departPos="5.10" departSpeed="0.00" departDelay="0.00" arrival="27042.00" arrivalLane="-165511531#0_0" arrivalPos="53.73" arrivalSpeed="12.88" duration="27.00" routeLength="48.63" waitSteps="0" rerouteNo="2" devices="tripinfo_244420_244420_453 hbefa_244420_244420_453" vType="DEFAULT_VEHTYPE" vaporized="">
        <emissions CO_abs="2047.166850" CO2_abs="128368.630783" HC_abs="42.506325" PMx_abs="16.034413" NOx_abs="281.788682" fuel_abs="51.178628"/>
    </tripinfo>
    <tripinfo id="224931_224931_449" depart="27026.00" departLane="-28523795_0" departPos="5.10" departSpeed="0.00" departDelay="0.00" arrival="27043.00" arrivalLane="-28523795_0" arrivalPos="192.02" arrivalSpeed="12.75" duration="17.00" routeLength="186.92" waitSteps="0" rerouteNo="0" devices="tripinfo_224931_224931_449 hbefa_224931_224931_449" vType="DEFAULT_VEHTYPE" vaporized="">
        <emissions CO_abs="553.932215" CO2_abs="42240.898143" HC_abs="13.246137" PMx_abs="4.912706" NOx_abs="88.574515" fuel_abs="16.840797"/>
    </tripinfo>
    <tripinfo id="211099_211099_442" depart="27013.00" departLane="166155712#0_0" departPos="5.10" departSpeed="0.00" departDelay="0.00" arrival="27043.00" arrivalLane="33469672_0" arrivalPos="142.78" arrivalSpeed="12.68" duration="30.00" routeLength="137.68" waitSteps="0" rerouteNo="1" devices="tripinfo_211099_211099_442 hbefa_211099_211099_442" vType="DEFAULT_VEHTYPE" vaporized="">
        <emissions CO_abs="905.427395" CO2_abs="73382.025931" HC_abs="22.391104" PMx_abs="8.216267" NOx_abs="151.933241" fuel_abs="29.256287"/>
    </tripinfo>
    <tripinfo id="197472_197472_436" depart="27006.00" departLane="23800191#2_0" departPos="5.10" departSpeed="0.00" departDelay="6.00" arrival="27043.00" arrivalLane="130875842_0" arrivalPos="81.21" arrivalSpeed="12.82" duration="37.00" routeLength="76.11" waitSteps="0" rerouteNo="3" devices="tripinfo_197472_197472_436 hbefa_197472_197472_436" vType="DEFAULT_VEHTYPE" vaporized="">
        <emissions CO_abs="877.666184" CO2_abs="82332.857283" HC_abs="24.023856" PMx_abs="8.409525" NOx_abs="164.857958" fuel_abs="32.824848"/>
    </tripinfo>
    <tripinfo id="212327_212327_442" depart="27014.00" departLane="198147972_0" departPos="5.10" departSpeed="0.00" departDelay="0.00" arrival="27043.00" arrivalLane="4353628#1_0" arrivalPos="68.95" arrivalSpeed="13.82" duration="29.00" routeLength="63.85" waitSteps="0" rerouteNo="3" devices="tripinfo_212327_212327_442 hbefa_212327_212327_442" vType="DEFAULT_VEHTYPE" vaporized="">
        <emissions CO_abs="578.496557" CO2_abs="57652.943535" HC_abs="16.269379" PMx_abs="5.724491" NOx_abs="114.513783" fuel_abs="22.985350"/>
    </tripinfo>
    <tripinfo id="245947_245947_454" depart="27016.00" departLane="-83823403#2_0" departPos="5.10" departSpeed="0.00" departDelay="0.00" arrival="27044.00" arrivalLane="23015533_0" arrivalPos="110.79" arrivalSpeed="13.44" duration="28.00" routeLength="105.69" waitSteps="0" rerouteNo="1" devices="tripinfo_245947_245947_454 hbefa_245947_245947_454" vType="DEFAULT_VEHTYPE" vaporized="">
        <emissions CO_abs="854.248193" CO2_abs="74871.295279" HC_abs="22.194118" PMx_abs="8.038885" NOx_abs="152.511505" fuel_abs="29.850038"/>
    </tripinfo>
    <tripinfo id="101376_101376_396" depart="27003.00" departLane="23471158#0_0" departPos="5.10" departSpeed="0.00" departDelay="3.00" arrival="27046.00" arrivalLane="32856811#2_0" arrivalPos="144.91" arrivalSpeed="13.03" duration="43.00" routeLength="139.81" waitSteps="0" rerouteNo="3" devices="tripinfo_101376_101376_396 hbefa_101376_101376_396" vType="DEFAULT_VEHTYPE" vaporized="">
        <emissions CO_abs="2941.334784" CO2_abs="188653.419108" HC_abs="60.806107" PMx_abs="23.520819" NOx_abs="413.770526" fuel_abs="75.213274"/>
    </tripinfo>
    <tripinfo id="95606_95606_394" depart="27000.00" departLane="8225148_0" departPos="5.10" departSpeed="0.00" departDelay="0.00" arrival="27047.00" arrivalLane="145261451_0" arrivalPos="86.92" arrivalSpeed="13.22" duration="47.00" routeLength="81.82" waitSteps="0" rerouteNo="5" devices="tripinfo_95606_95606_394 hbefa_95606_95606_394" vType="DEFAULT_VEHTYPE" vaporized="">
        <emissions CO_abs="1493.475798" CO2_abs="121033.791206" HC_abs="36.432644" PMx_abs="13.947785" NOx_abs="251.847226" fuel_abs="48.254318"/>
    </tripinfo>
    <tripinfo id="244003_244003_453" depart="27029.00" departLane="-28523795_0" departPos="5.10" departSpeed="0.00" departDelay="0.00" arrival="27047.00" arrivalLane="-28523795_0" arrivalPos="192.02" arrivalSpeed="13.71" duration="18.00" routeLength="186.92" waitSteps="0" rerouteNo="0" devices="tripinfo_244003_244003_453 hbefa_244003_244003_453" vType="DEFAULT_VEHTYPE" vaporized="">
        <emissions CO_abs="555.881014" CO2_abs="44352.967494" HC_abs="13.725845" PMx_abs="4.878330" NOx_abs="91.704328" fuel_abs="17.682847"/>
    </tripinfo>
    <tripinfo id="227630_227630_450" depart="27017.00" departLane="166155712#0_0" departPos="5.10" departSpeed="0.00" departDelay="0.00" arrival="27047.00" arrivalLane="33469672_0" arrivalPos="142.78" arrivalSpeed="13.36" duration="30.00" routeLength="137.68" waitSteps="0" rerouteNo="1" devices="tripinfo_227630_227630_450 hbefa_227630_227630_450" vType="DEFAULT_VEHTYPE" vaporized="">
        <emissions CO_abs="909.188252" CO2_abs="73784.869294" HC_abs="22.369491" PMx_abs="8.430880" NOx_abs="153.256341" fuel_abs="29.416896"/>
    </tripinfo>
    <tripinfo id="101939_101939_396" depart="27006.00" departLane="23471158#0_0" departPos="5.10" departSpeed="0.00" departDelay="6.00" arrival="27048.00" arrivalLane="32856811#2_0" arrivalPos="144.91" arrivalSpeed="12.71" duration="42.00" routeLength="139.81" waitSteps="0" rerouteNo="3" devices="tripinfo_101939_101939_396 hbefa_101939_101939_396" vType="DEFAULT_VEHTYPE" vaporized="">
        <emissions CO_abs="3353.916132" CO2_abs="206514.557104" HC_abs="67.452364" PMx_abs="26.570051" NOx_abs="458.194319" fuel_abs="82.334249"/>
    </tripinfo>
    <tripinfo id="221885_221885_448" depart="27017.00" departLane="-175607927#0_0" departPos="5.10" departSpeed="0.00" departDelay="0.00" arrival="27048.00" arrivalLane="-29214406_0" arrivalPos="179.38" arrivalSpeed="13.24" duration="31.00" routeLength="174.28" waitSteps="0" rerouteNo="1" devices="tripinfo_221885_221885_448 hbefa_221885_221885_448" vType="DEFAULT_VEHTYPE" vaporized="">