<?xml version="1.0" encoding="UTF-8"?>

<!-- generated on Tue Apr 29 11:21:06 2014 by SUMO sumo Version 0.19.0
<?xml version="1.0" encoding="UTF-8"?>

<configuration xmlns:xsi="http://www.w3.org/2001/XMLSchema-instance" xsi:noNamespaceSchemaLocation="http://sumo-sim.org/xsd/sumoConfiguration.xsd">

    <input>
        <net-file value="data/map.net.xml"/>
        <route-files value="data/map.rou.xml"/>
    </input>

    <output>
        <tripinfo-output value="data/maptripinfoLocal.out.xml"/>
        <save-state.prefix value="data/state"/>
    </output>

    <time>
        <begin value="27000"/>
        <end value="27900"/>
    </time>

    <processing>
        <route-steps value="200"/>
        <scale value="0.8"/>
        <time-to-teleport value="300"/>
        <lanechange.allow-swap value="true"/>
    </processing>

    <report>
        <verbose value="true"/>
        <no-warnings value="true"/>
        <no-step-log value="true"/>
    </report>

    <emissions>
        <device.hbefa.probability value="1"/>
    </emissions>

    <traci_server>
        <remote-port value="8814"/>
    </traci_server>

</configuration>
-->

<tripinfos>
    <tripinfo id="136022_136022_411" depart="27003.00" departLane="23800191#2_0" departPos="5.10" departSpeed="0.00" departDelay="3.00" arrival="27009.00" arrivalLane="23800191#2_0" arrivalPos="38.41" arrivalSpeed="10.65" duration="6.00" routeLength="33.31" waitSteps="0" rerouteNo="1" devices="tripinfo_136022_136022_411 hbefa_136022_136022_411" vType="DEFAULT_VEHTYPE" vaporized="">
        <emissions CO_abs="282.110959" CO2_abs="20318.301975" HC_abs="6.897386" PMx_abs="2.383736" NOx_abs="42.436999" fuel_abs="8.100591"/>
    </tripinfo>
    <tripinfo id="182087_182087_431" depart="27000.00" departLane="4380937#2_0" departPos="5.10" departSpeed="0.00" departDelay="0.00" arrival="27011.00" arrivalLane="4380937#3_0" arrivalPos="72.76" arrivalSpeed="13.52" duration="11.00" routeLength="103.50" waitSteps="0" rerouteNo="1" devices="tripinfo_182087_182087_431 hbefa_182087_182087_431" vType="DEFAULT_VEHTYPE" vaporized="">
        <emissions CO_abs="517.053877" CO2_abs="37877.763071" HC_abs="12.172782" PMx_abs="4.503225" NOx_abs="79.976956" fuel_abs="15.101281"/>
    </tripinfo>
    <tripinfo id="105435_105435_398" depart="27003.00" departLane="145474196#1_0" departPos="5.10" departSpeed="0.00" departDelay="3.00" arrival="27014.00" arrivalLane="145474196#1_0" arrivalPos="94.12" arrivalSpeed="10.78" duration="11.00" routeLength="89.02" waitSteps="0" rerouteNo="0" devices="tripinfo_105435_105435_398 hbefa_105435_105435_398" vType="DEFAULT_VEHTYPE" vaporized="">
        <emissions CO_abs="651.721386" CO2_abs="42584.695956" HC_abs="14.434669" PMx_abs="5.513470" NOx_abs="92.496502" fuel_abs="16.977858"/>
    </tripinfo>
    <tripinfo id="72912_72912_384" depart="27003.00" departLane="9207803_0" departPos="5.10" departSpeed="0.00" departDelay="3.00" arrival="27014.00" arrivalLane="9207803_0" arrivalPos="69.23" arrivalSpeed="7.06" duration="11.00" routeLength="64.13" waitSteps="0" rerouteNo="0" devices="tripinfo_72912_72912_384 hbefa_72912_72912_384" vType="DEFAULT_VEHTYPE" vaporized="">
        <emissions CO_abs="264.897699" CO2_abs="20657.553860" HC_abs="6.877730" PMx_abs="2.372334" NOx_abs="42.333673" fuel_abs="8.235846"/>
    </tripinfo>
    <tripinfo id="251564_251564_457" depart="27002.00" departLane="51113317_0" departPos="5.10" departSpeed="0.00" departDelay="0.00" arrival="27014.00" arrivalLane="51113317_0" arrivalPos="125.08" arrivalSpeed="13.12" duration="12.00" routeLength="119.98" waitSteps="0" rerouteNo="1" devices="tripinfo_251564_251564_457 hbefa_251564_251564_457" vType="DEFAULT_VEHTYPE" vaporized="">
        <emissions CO_abs="500.004587" CO2_abs="37324.023348" HC_abs="11.912364" PMx_abs="4.363813" NOx_abs="78.414180" fuel_abs="14.880513"/>
    </tripinfo>
    <tripinfo id="92380_92380_392" depart="27000.00" departLane="-154755073#3_0" departPos="5.10" departSpeed="0.00" departDelay="0.00" arrival="27015.00" arrivalLane="-154755073#3_0" arrivalPos="102.52" arrivalSpeed="7.54" duration="15.00" routeLength="97.42" waitSteps="0" rerouteNo="1" devices="tripinfo_92380_92380_392 hbefa_92380_92380_392" vType="DEFAULT_VEHTYPE" vaporized="">
        <emissions CO_abs="225.106575" CO2_abs="23713.161265" HC_abs="7.227497" PMx_abs="2.295538" NOx_abs="45.551050" fuel_abs="9.454070"/>
    </tripinfo>
    <tripinfo id="84049_84049_390" depart="27006.00" departLane="9207803_0" departPos="5.10" departSpeed="0.00" departDelay="6.00" arrival="27016.00" arrivalLane="9207803_0" arrivalPos="69.23" arrivalSpeed="8.23" duration="10.00" routeLength="64.13" waitSteps="0" rerouteNo="1" devices="tripinfo_84049_84049_390 hbefa_84049_84049_390" vType="DEFAULT_VEHTYPE" vaporized="">
        <emissions CO_abs="201.951482" CO2_abs="20084.467732" HC_abs="6.200099" PMx_abs="1.929282" NOx_abs="38.862094" fuel_abs="8.007366"/>
    </tripinfo>
    <tripinfo id="232041_232041_451" depart="27002.00" departLane="28523795_0" departPos="5.10" departSpeed="0.00" departDelay="0.00" arrival="27020.00" arrivalLane="28523795_0" arrivalPos="192.02" arrivalSpeed="13.36" duration="18.00" routeLength="186.92" waitSteps="0" rerouteNo="1" devices="tripinfo_232041_232041_451 hbefa_232041_232041_451" vType="DEFAULT_VEHTYPE" vaporized="">
        <emissions CO_abs="424.209343" CO2_abs="40453.742117" HC_abs="11.798191" PMx_abs="3.987934" NOx_abs="80.490572" fuel_abs="16.128288"/>
    </tripinfo>
    <tripinfo id="75851_75851_386" depart="27002.00" departLane="28542995#2_0" departPos="5.10" departSpeed="0.00" departDelay="2.00" arrival="27021.00" arrivalLane="23493181#0_0" arrivalPos="88.20" arrivalSpeed="12.05" duration="19.00" routeLength="144.84" waitSteps="0" rerouteNo="1" devices="tripinfo_75851_75851_386 hbefa_75851_75851_386" vType="DEFAULT_VEHTYPE" vaporized="">
        <emissions CO_abs="587.752672" CO2_abs="48356.909502" HC_abs="14.985589" PMx_abs="5.435867" NOx_abs="99.152703" fuel_abs="19.279155"/>
    </tripinfo>
    <tripinfo id="135880_135880_411" depart="27000.00" departLane="150039002#2_0" departPos="5.10" departSpeed="0.00" departDelay="0.00" arrival="27022.00" arrivalLane="150039002#2_0" arrivalPos="249.40" arrivalSpeed="13.52" duration="22.00" routeLength="244.30" waitSteps="0" rerouteNo="1" devices="tripinfo_135880_135880_411 hbefa_135880_135880_411" vType="DEFAULT_VEHTYPE" vaporized="">
        <emissions CO_abs="590.466817" CO2_abs="52742.543749" HC_abs="15.400064" PMx_abs="5.665405" NOx_abs="107.339317" fuel_abs="21.027646"/>
    </tripinfo>
    <tripinfo id="219187_219187_446" depart="27000.00" departLane="144935690_0" departPos="5.10" departSpeed="0.00" departDelay="0.00" arrival="27022.00" arrivalLane="25997632_0" arrivalPos="136.14" arrivalSpeed="12.61" duration="22.00" routeLength="241.37" waitSteps="0" rerouteNo="0" devices="tripinfo_219187_219187_446 hbefa_219187_219187_446" vType="DEFAULT_VEHTYPE" vaporized="">
        <emissions CO_abs="519.956594" CO2_abs="48326.059797" HC_abs="14.025122" PMx_abs="5.088196" NOx_abs="97.329570" fuel_abs="19.266861"/>
    </tripinfo>
    <tripinfo id="206737_206737_440" depart="27007.00" departLane="-29206900_0" departPos="5.10" departSpeed="0.00" departDelay="0.00" arrival="27022.00" arrivalLane="29207110_0" arrivalPos="28.94" arrivalSpeed="12.28" duration="15.00" routeLength="103.46" waitSteps="0" rerouteNo="1" devices="tripinfo_206737_206737_440 hbefa_206737_206737_440" vType="DEFAULT_VEHTYPE" vaporized="">
        <emissions CO_abs="490.332385" CO2_abs="37637.014224" HC_abs="12.247744" PMx_abs="4.373205" NOx_abs="77.988434" fuel_abs="15.005294"/>
    </tripinfo>
    <tripinfo id="110327_110327_401" depart="27000.00" departLane="53212166#0_0" departPos="5.10" departSpeed="0.00" departDelay="0.00" arrival="27023.00" arrivalLane="28542995#2_2" arrivalPos="61.74" arrivalSpeed="12.84" duration="23.00" routeLength="231.82" waitSteps="0" rerouteNo="0" devices="tripinfo_110327_110327_401 hbefa_110327_110327_401" vType="DEFAULT_VEHTYPE" vaporized="">
        <emissions CO_abs="518.996509" CO2_abs="50981.471506" HC_abs="14.712749" PMx_abs="5.213294" NOx_abs="101.294400" fuel_abs="20.325531"/>
    </tripinfo>
    <tripinfo id="225242_225242_449" depart="27000.00" departLane="154755124_0" departPos="5.10" departSpeed="0.00" departDelay="0.00" arrival="27024.00" arrivalLane="4380937#3_1" arrivalPos="72.76" arrivalSpeed="13.26" duration="24.00" routeLength="103.50" waitSteps="0" rerouteNo="1" devices="tripinfo_225242_225242_449 hbefa_225242_225242_449" vType="DEFAULT_VEHTYPE" vaporized="">
        <emissions CO_abs="688.969347" CO2_abs="52346.104564" HC_abs="16.716574" PMx_abs="6.280285" NOx_abs="109.644703" fuel_abs="20.869584"/>
    </tripinfo>
    <tripinfo id="148867_148867_417" depart="27006.00" departLane="3065455_0" departPos="5.10" departSpeed="0.00" departDelay="6.00" arrival="27024.00" arrivalLane="23800191#0_0" arrivalPos="143.94" arrivalSpeed="12.71" duration="18.00" routeLength="194.49" waitSteps="0" rerouteNo="1" devices="tripinfo_148867_148867_417 hbefa_148867_148867_417" vType="DEFAULT_VEHTYPE" vaporized="">
        <emissions CO_abs="471.848518" CO2_abs="41661.520473" HC_abs="12.460474" PMx_abs="4.468760" NOx_abs="84.509258" fuel_abs="16.609810"/>
    </tripinfo>
    <tripinfo id="141415_141415_415" depart="27003.00" departLane="150039002#2_0" departPos="5.10" departSpeed="0.00" departDelay="3.00" arrival="27025.00" arrivalLane="150039002#2_0" arrivalPos="249.40" arrivalSpeed="13.64" duration="22.00" routeLength="244.30" waitSteps="0" rerouteNo="1" devices="tripinfo_141415_141415_415 hbefa_141415_141415_415" vType="DEFAULT_VEHTYPE" vaporized="">
        <emissions CO_abs="553.958383" CO2_abs="53148.203248" HC_abs="15.194191" PMx_abs="5.392189" NOx_abs="106.391839" fuel_abs="21.189377"/>
    </tripinfo>
    <tripinfo id="225541_225541_450" depart="27000.00" departLane="9207803_0" departPos="5.10" departSpeed="0.00" departDelay="0.00" arrival="27025.00" arrivalLane="154755073#3_0" arrivalPos="102.52" arrivalSpeed="8.13" duration="25.00" routeLength="166.65" waitSteps="0" rerouteNo="1" devices="tripinfo_225541_225541_450 hbefa_225541_225541_450" vType="DEFAULT_VEHTYPE" vaporized="">
        <emissions CO_abs="352.454066" CO2_abs="35931.332050" HC_abs="10.959642" PMx_abs="3.424578" NOx_abs="69.467354" fuel_abs="14.325265"/>
    </tripinfo>
    <tripinfo id="136596_136596_411" depart="27003.00" departLane="131651824_0" departPos="5.10" departSpeed="0.00" departDelay="3.00" arrival="27027.00" arrivalLane="4400211#0_0" arrivalPos="197.56" arrivalSpeed="11.84" duration="24.00" routeLength="253.49" waitSteps="0" rerouteNo="1" devices="tripinfo_136596_136596_411 hbefa_136596_136596_411" vType="DEFAULT_VEHTYPE" vaporized="">
        <emissions CO_abs="770.138473" CO2_abs="63909.457098" HC_abs="19.314246" PMx_abs="7.031398" NOx_abs="131.620500" fuel_abs="25.479720"/>
    </tripinfo>
    <tripinfo id="220353_220353_447" depart="27001.00" departLane="-165515969#3_0" departPos="5.10" departSpeed="0.00" departDelay="0.00" arrival="27027.00" arrivalLane="-165511531#0_0" arrivalPos="53.73" arrivalSpeed="13.58" duration="26.00" routeLength="345.81" waitSteps="0" rerouteNo="1" devices="tripinfo_220353_220353_447 hbefa_220353_220353_447" vType="DEFAULT_VEHTYPE" vaporized="">
        <emissions CO_abs="2489.694820" CO2_abs="143198.149979" HC_abs="49.291732" PMx_abs="19.681031" NOx_abs="323.264287" fuel_abs="57.090924"/>
    </tripinfo>
    <tripinfo id="134089_134089_411" depart="27000.00" departLane="23800191#2_0" departPos="5.10" departSpeed="0.00" departDelay="0.00" arrival="27029.00" arrivalLane="4400211#0_0" arrivalPos="197.56" arrivalSpeed="13.67" duration="29.00" routeLength="291.90" waitSteps="0" rerouteNo="0" devices="tripinfo_134089_134089_411 hbefa_134089_134089_411" vType="DEFAULT_VEHTYPE" vaporized="">
        <emissions CO_abs="887.384692" CO2_abs="78318.445942" HC_abs="22.963966" PMx_abs="8.553193" NOx_abs="159.698800" fuel_abs="31.224365"/>
    </tripinfo>
    <tripinfo id="118681_118681_405" depart="27000.00" departLane="23471158#6_0" departPos="5.10" departSpeed="0.00" departDelay="0.00" arrival="27030.00" arrivalLane="32856811#2_0" arrivalPos="144.91" arrivalSpeed="13.17" duration="30.00" routeLength="453.34" waitSteps="0" rerouteNo="1" devices="tripinfo_118681_118681_405 hbefa_118681_118681_405" vType="DEFAULT_VEHTYPE" vaporized="">
        <emissions CO_abs="2065.409088" CO2_abs="127969.112797" HC_abs="41.882790" PMx_abs="16.152174" NOx_abs="282.390816" fuel_abs="51.019368"/>
    </tripinfo>
    <tripinfo id="188835_188835_434" depart="27006.00" departLane="187965762#1_0" departPos="5.10" departSpeed="0.00" departDelay="6.00" arrival="27030.00" arrivalLane="187965762#2_0" arrivalPos="85.18" arrivalSpeed="7.14" duration="24.00" routeLength="168.92" waitSteps="0" rerouteNo="1" devices="tripinfo_188835_188835_434 hbefa_188835_188835_434" vType="DEFAULT_VEHTYPE" vaporized="">
        <emissions CO_abs="284.455194" CO2_abs="32001.672814" HC_abs="9.436974" PMx_abs="2.893239" NOx_abs="60.778928" fuel_abs="12.758571"/>
    </tripinfo>
    <tripinfo id="84113_84113_390" depart="27000.00" departLane="150031205#0_0" departPos="5.10" departSpeed="0.00" departDelay="0.00" arrival="27030.00" arrivalLane="23471158#10_0" arrivalPos="144.68" arrivalSpeed="27.50" duration="30.00" routeLength="462.65" waitSteps="1" rerouteNo="1" devices="tripinfo_84113_84113_390 hbefa_84113_84113_390" vType="DEFAULT_VEHTYPE" vaporized="">
        <emissions CO_abs="2923.298355" CO2_abs="171386.842431" HC_abs="57.096406" PMx_abs="21.206300" NOx_abs="380.945966" fuel_abs="68.329404"/>
    </tripinfo>
    <tripinfo id="104726_104726_398" depart="27000.00" departLane="23471158#5_0" departPos="5.10" departSpeed="0.00" departDelay="0.00" arrival="27032.00" arrivalLane="32856811#2_0" arrivalPos="144.91" arrivalSpeed="13.60" duration="32.00" routeLength="464.21" waitSteps="0" rerouteNo="1" devices="tripinfo_104726_104726_398 hbefa_104726_104726_398" vType="DEFAULT_VEHTYPE" vaporized="">
        <emissions CO_abs="2134.030734" CO2_abs="132941.085814" HC_abs="43.555707" PMx_abs="16.559831" NOx_abs="292.481907" fuel_abs="53.001616"/>
    </tripinfo>
    <tripinfo id="187318_187318_433" depart="27013.00" departLane="-83823403#2_0" departPos="5.10" departSpeed="0.00" departDelay="0.00" arrival="27032.00" arrivalLane="-83823403#2_0" arrivalPos="184.87" arrivalSpeed="11.41" duration="19.00" routeLength="179.77" waitSteps="0" rerouteNo="1" devices="tripinfo_187318_187318_433 hbefa_187318_187318_433" vType="DEFAULT_VEHTYPE" vaporized="">
        <emissions CO_abs="628.087833" CO2_abs="52376.298104" HC_abs="15.960227" PMx_abs="5.788561" NOx_abs="107.568817" fuel_abs="20.881626"/>
    </tripinfo>
    <tripinfo id="122617_122617_406" depart="27000.00" departLane="131651824_0" departPos="5.10" departSpeed="0.00" departDelay="0.00" arrival="27032.00" arrivalLane="130875842_0" arrivalPos="81.21" arrivalSpeed="13.83" duration="32.00" routeLength="334.70" waitSteps="0" rerouteNo="1" devices="tripinfo_122617_122617_406 hbefa_122617_122617_406" vType="DEFAULT_VEHTYPE" vaporized="">
        <emissions CO_abs="946.919064" CO2_abs="81794.669460" HC_abs="24.308813" PMx_abs="8.747563" NOx_abs="167.033980" fuel_abs="32.610282"/>
    </tripinfo>
    <tripinfo id="212444_212444_443" depart="27003.00" departLane="166155712#0_0" departPos="5.10" departSpeed="0.00" departDelay="0.00" arrival="27033.00" arrivalLane="33469672_0" arrivalPos="142.78" arrivalSpeed="12.61" duration="30.00" routeLength="317.06" waitSteps="0" rerouteNo="1" devices="tripinfo_212444_212444_443 hbefa_212444_212444_443" vType="DEFAULT_VEHTYPE" vaporized="">
        <emissions CO_abs="929.944299" CO2_abs="78308.298181" HC_abs="23.421194" PMx_abs="8.721564" NOx_abs="161.173813" fuel_abs="31.220318"/>
    </tripinfo>
    <tripinfo id="103637_103637_397" depart="27000.00" departLane="145474196#1_0" departPos="5.10" departSpeed="0.00" departDelay="0.00" arrival="27034.00" arrivalLane="150039002#2_1" arrivalPos="249.40" arrivalSpeed="13.12" duration="34.00" routeLength="361.28" waitSteps="0" rerouteNo="0" devices="tripinfo_103637_103637_397 hbefa_103637_103637_397" vType="DEFAULT_VEHTYPE" vaporized="">
        <emissions CO_abs="914.160685" CO2_abs="89363.659161" HC_abs="25.334726" PMx_abs="8.849350" NOx_abs="178.116365" fuel_abs="35.627926"/>
    </tripinfo>
    <tripinfo id="208001_208001_441" depart="27001.00" departLane="-83823403#2_0" departPos="5.10" departSpeed="0.00" departDelay="0.00" arrival="27034.00" arrivalLane="23015529#0_0" arrivalPos="184.87" arrivalSpeed="12.91" duration="33.00" routeLength="364.64" waitSteps="0" rerouteNo="1" devices="tripinfo_208001_208001_441 hbefa_208001_208001_441" vType="DEFAULT_VEHTYPE" vaporized="">
        <emissions CO_abs="1021.227667" CO2_abs="83098.128474" HC_abs="25.135430" PMx_abs="9.391451" NOx_abs="172.394405" fuel_abs="33.129950"/>
    </tripinfo>
    <tripinfo id="105964_105964_399" depart="27025.00" departLane="145474196#1_0" departPos="5.10" departSpeed="0.00" departDelay="25.00" arrival="27035.00" arrivalLane="145474196#1_0" arrivalPos="94.12" arrivalSpeed="13.08" duration="10.00" routeLength="89.02" waitSteps="0" rerouteNo="1" devices="tripinfo_105964_105964_399 hbefa_105964_105964_399" vType="DEFAULT_VEHTYPE" vaporized="">
        <emissions CO_abs="423.370545" CO2_abs="31080.649004" HC_abs="10.186260" PMx_abs="3.581297" NOx_abs="65.060426" fuel_abs="12.391374"/>
    </tripinfo>
    <tripinfo id="103310_103310_397" depart="27000.00" departLane="83703645_0" departPos="5.10" departSpeed="0.00" departDelay="0.00" arrival="27035.00" arrivalLane="23493177#0_0" arrivalPos="166.52" arrivalSpeed="7.46" duration="35.00" routeLength="279.85" waitSteps="0" rerouteNo="0" devices="tripinfo_103310_103310_397 hbefa_103310_103310_397" vType="DEFAULT_VEHTYPE" vaporized="">
        <emissions CO_abs="610.061390" CO2_abs="56091.145093" HC_abs="17.093350" PMx_abs="5.867138" NOx_abs="111.691539" fuel_abs="22.362672"/>
    </tripinfo>
    <tripinfo id="217202_217202_446" depart="27007.00" departLane="-83823403#2_0" departPos="5.10" departSpeed="0.00" departDelay="0.00" arrival="27035.00" arrivalLane="23015533_0" arrivalPos="110.79" arrivalSpeed="12.78" duration="28.00" routeLength="290.56" waitSteps="0" rerouteNo="0" devices="tripinfo_217202_217202_446 hbefa_217202_217202_446" vType="DEFAULT_VEHTYPE" vaporized="">
        <emissions CO_abs="866.277919" CO2_abs="70429.958122" HC_abs="21.533531" PMx_abs="7.933655" NOx_abs="145.648475" fuel_abs="28.079343"/>
    </tripinfo>
    <tripinfo id="146563_146563_416" depart="27004.00" departLane="129833340#2_0" departPos="5.10" departSpeed="0.00" departDelay="4.00" arrival="27037.00" arrivalLane="154755096_0" arrivalPos="66.91" arrivalSpeed="13.83" duration="33.00" routeLength="417.33" waitSteps="0" rerouteNo="0" devices="tripinfo_146563_146563_416 hbefa_146563_146563_416" vType="DEFAULT_VEHTYPE" vaporized="">
        <emissions CO_abs="2273.054895" CO2_abs="144037.993501" HC_abs="47.302426" PMx_abs="17.602610" NOx_abs="314.496369" fuel_abs="57.425782"/>
    </tripinfo>
    <tripinfo id="154499_154499_420" depart="27000.00" departLane="28542995#0_0" departPos="5.10" departSpeed="0.00" departDelay="0.00" arrival="27038.00" arrivalLane="23493260#4_1" arrivalPos="126.60" arrivalSpeed="12.67" duration="38.00" routeLength="435.19" waitSteps="0" rerouteNo="0" devices="tripinfo_154499_154499_420 hbefa_154499_154499_420" vType="DEFAULT_VEHTYPE" vaporized="">
        <emissions CO_abs="894.424199" CO2_abs="87008.905876" HC_abs="24.525867" PMx_abs="8.865246" NOx_abs="174.294065" fuel_abs="34.689123"/>
    </tripinfo>
    <tripinfo id="238887_238887_451" depart="27010.00" departLane="-83823403#2_0" departPos="5.10" departSpeed="0.00" departDelay="0.00" arrival="27039.00" arrivalLane="23015533_0" arrivalPos="110.79" arrivalSpeed="13.40" duration="29.00" routeLength="290.56" waitSteps="0" rerouteNo="1" devices="tripinfo_238887_238887_451 hbefa_238887_238887_451" vType="DEFAULT_VEHTYPE" vaporized="">
        <emissions CO_abs="868.135516" CO2_abs="70680.290221" HC_abs="21.672502" PMx_abs="7.864462" NOx_abs="145.907978" fuel_abs="28.179145"/>
    </tripinfo>
    <tripinfo id="218769_218769_446" depart="27003.00" departLane="-55940134_0" departPos="5.10" departSpeed="0.00" departDelay="3.00" arrival="27040.00" arrivalLane="-144935692#1_1" arrivalPos="103.61" arrivalSpeed="12.59" duration="37.00" routeLength="447.77" waitSteps="0" rerouteNo="1" devices="tripinfo_218769_218769_446 hbefa_218769_218769_446" vType="DEFAULT_VEHTYPE" vaporized="">
        <emissions CO_abs="667.664251" CO2_abs="65779.981188" HC_abs="18.493780" PMx_abs="6.387483" NOx_abs="130.896409" fuel_abs="26.225476"/>
    </tripinfo>
    <tripinfo id="171544_171544_426" depart="27000.00" departLane="187965762#1_0" departPos="5.10" departSpeed="0.00" departDelay="0.00" arrival="27040.00" arrivalLane="23800191#0_0" arrivalPos="143.94" arrivalSpeed="12.66" duration="40.00" routeLength="368.51" waitSteps="0" rerouteNo="1" devices="tripinfo_171544_171544_426 hbefa_171544_171544_426" vType="DEFAULT_VEHTYPE" vaporized="">
        <emissions CO_abs="680.765807" CO2_abs="69264.616164" HC_abs="19.888160" PMx_abs="7.008469" NOx_abs="136.558337" fuel_abs="27.614739"/>
    </tripinfo>
    <tripinfo id="138122_138122_412" depart="27009.00" departLane="131651824_0" departPos="5.10" departSpeed="0.00" departDelay="9.00" arrival="27040.00" arrivalLane="130875842_0" arrivalPos="81.21" arrivalSpeed="13.07" duration="31.00" routeLength="334.70" waitSteps="0" rerouteNo="1" devices="tripinfo_138122_138122_412 hbefa_138122_138122_412" vType="DEFAULT_VEHTYPE" vaporized="">
        <emissions CO_abs="884.240599" CO2_abs="79218.463905" HC_abs="23.166774" PMx_abs="8.348117" NOx_abs="160.684375" fuel_abs="31.583189"/>
    </tripinfo>
    <tripinfo id="123467_123467_406" depart="27011.00" departLane="23471158#6_0" departPos="5.10" departSpeed="0.00" departDelay="11.00" arrival="27041.00" arrivalLane="32856811#2_0" arrivalPos="144.91" arrivalSpeed="12.84" duration="30.00" routeLength="453.34" waitSteps="0" rerouteNo="0" devices="tripinfo_123467_123467_406 hbefa_123467_123467_406" vType="DEFAULT_VEHTYPE" vaporized="">
        <emissions CO_abs="2246.836789" CO2_abs="133176.199643" HC_abs="44.723128" PMx_abs="17.665731" NOx_abs="298.027748" fuel_abs="53.095341"/>
    </tripinfo>
    <tripinfo id="244420_244420_453" depart="27015.00" departLane="-165515969#3_0" departPos="5.10" departSpeed="0.00" departDelay="0.00" arrival="27041.00" arrivalLane="-165511531#0_0" arrivalPos="53.73" arrivalSpeed="13.11" duration="26.00" routeLength="345.81" waitSteps="0" rerouteNo="2" devices="tripinfo_244420_244420_453 hbefa_244420_244420_453" vType="DEFAULT_VEHTYPE" vaporized="">
        <emissions CO_abs="2300.857775" CO2_abs="136551.439069" HC_abs="46.237361" PMx_abs="18.186581" NOx_abs="305.355472" fuel_abs="54.440985"/>
    </tripinfo>
    <tripinfo id="184987_184987_431" depart="27000.00" departLane="-186463490#0_0" departPos="5.10" departSpeed="0.00" departDelay="0.00" arrival="27043.00" arrivalLane="-144935692#1_0" arrivalPos="103.61" arrivalSpeed="13.27" duration="43.00" routeLength="500.46" waitSteps="0" rerouteNo="1" devices="tripinfo_184987_184987_431 hbefa_184987_184987_431" vType="DEFAULT_VEHTYPE" vaporized="">
        <emissions CO_abs="1124.166615" CO2_abs="104488.666885" HC_abs="30.127659" PMx_abs="10.631171" NOx_abs="210.249992" fuel_abs="41.658034"/>
    </tripinfo>
    <tripinfo id="197472_197472_436" depart="27006.00" departLane="23800191#2_0" departPos="5.10" departSpeed="0.00" departDelay="6.00" arrival="27043.00" arrivalLane="130875842_0" arrivalPos="81.21" arrivalSpeed="13.86" duration="37.00" routeLength="373.11" waitSteps="0" rerouteNo="0" devices="tripinfo_197472_197472_436 hbefa_197472_197472_436" vType="DEFAULT_VEHTYPE" vaporized="">
        <emissions CO_abs="924.464885" CO2_abs="86561.399277" HC_abs="25.245836" PMx_abs="8.918507" NOx_abs="173.667837" fuel_abs="34.510703"/>
    </tripinfo>
    <tripinfo id="212327_212327_442" depart="27014.00" departLane="198147972_0" departPos="5.10" departSpeed="0.00" departDelay="0.00" arrival="27043.00" arrivalLane="4353628#1_0" arrivalPos="68.95" arrivalSpeed="13.26" duration="29.00" routeLength="339.08" waitSteps="0" rerouteNo="1" devices="tripinfo_212327_212327_442 hbefa_212327_212327_442" vType="DEFAULT_VEHTYPE" vaporized="">
        <emissions CO_abs="544.150734" CO2_abs="63638.601043" HC_abs="16.932377" PMx_abs="5.768043" NOx_abs="123.088597" fuel_abs="25.371743"/>
    </tripinfo>
    <tripinfo id="101768_101768_396" depart="27000.00" departLane="23493181#0_0" departPos="5.10" departSpeed="0.00" departDelay="0.00" arrival="27044.00" arrivalLane="122989592#2_0" arrivalPos="74.34" arrivalSpeed="7.83" duration="44.00" routeLength="323.96" waitSteps="0" rerouteNo="0" devices="tripinfo_101768_101768_396 hbefa_101768_101768_396" vType="DEFAULT_VEHTYPE" vaporized="">
        <emissions CO_abs="766.771198" CO2_abs="69646.042455" HC_abs="21.509393" PMx_abs="7.298973" NOx_abs="138.750365" fuel_abs="27.766799"/>
    </tripinfo>
    <tripinfo id="224931_224931_449" depart="27026.00" departLane="-28523795_0" departPos="5.10" departSpeed="0.00" departDelay="0.00" arrival="27044.00" arrivalLane="-28523795_0" arrivalPos="192.02" arrivalSpeed="12.82" duration="18.00" routeLength="186.92" waitSteps="0" rerouteNo="0" devices="tripinfo_224931_224931_449 hbefa_224931_224931_449" vType="DEFAULT_VEHTYPE" vaporized="">
        <emissions CO_abs="461.023890" CO2_abs="43207.806776" HC_abs="12.685442" PMx_abs="4.413467" NOx_abs="86.444160" fuel_abs="17.226291"/>
    </tripinfo>
    <tripinfo id="211099_211099_442" depart="27013.00" departLane="166155712#0_0" departPos="5.10" departSpeed="0.00" departDelay="0.00" arrival="27044.00" arrivalLane="33469672_0" arrivalPos="142.78" arrivalSpeed="13.06" duration="31.00" routeLength="317.06" waitSteps="0" rerouteNo="1" devices="tripinfo_211099_211099_442 hbefa_211099_211099_442" vType="DEFAULT_VEHTYPE" vaporized="">
        <emissions CO_abs="856.492002" CO2_abs="75306.102505" HC_abs="22.407218" PMx_abs="7.828748" NOx_abs="152.690729" fuel_abs="30.023388"/>
    </tripinfo>
    <tripinfo id="245947_245947_454" depart="27016.00" departLane="-83823403#2_0" departPos="5.10" departSpeed="0.00" departDelay="0.00" arrival="27045.00" arrivalLane="23015533_0" arrivalPos="110.79" arrivalSpeed="13.26" duration="29.00" routeLength="290.56" waitSteps="0" rerouteNo="0" devices="tripinfo_245947_245947_454 hbefa_245947_245947_454" vType="DEFAULT_VEHTYPE" vaporized="">
        <emissions CO_abs="935.626866" CO2_abs="73560.568204" HC_abs="22.828295" PMx_abs="8.386327" NOx_abs="153.096175" fuel_abs="29.327467"/>
    </tripinfo>
    <tripinfo id="101376_101376_396" depart="27003.00" departLane="23471158#0_0" departPos="5.10" departSpeed="0.00" departDelay="3.00" arrival="27046.00" arrivalLane="32856811#2_0" arrivalPos="144.91" arrivalSpeed="13.42" duration="43.00" routeLength="664.02" waitSteps="0" rerouteNo="1" devices="tripinfo_101376_101376_396 hbefa_101376_101376_396" vType="DEFAULT_VEHTYPE" vaporized="">
        <emissions CO_abs="3279.561989" CO2_abs="197256.658031" HC_abs="65.717466" PMx_abs="26.180842" NOx_abs="440.849891" fuel_abs="78.643241"/>
    </tripinfo>
    <tripinfo id="192246_192246_435" depart="27018.00" departLane="2511537#2_0" departPos="5.10" departSpeed="0.00" departDelay="18.00" arrival="27046.00" arrivalLane="2511537#2_0" arrivalPos="191.15" arrivalSpeed="8.11" duration="28.00" routeLength="186.05" waitSteps="0" rerouteNo="1" devices="tripinfo_192246_192246_435 hbefa_192246_192246_435" vType="DEFAULT_VEHTYPE" vaporized="">
        <emissions CO_abs="344.697472" CO2_abs="41763.834813" HC_abs="12.193441" PMx_abs="3.650988" NOx_abs="78.248664" fuel_abs="16.650594"/>
    </tripinfo>
    <tripinfo id="140107_140107_414" depart="27000.00" departLane="154755117_0" departPos="5.10" departSpeed="0.00" departDelay="0.00" arrival="27046.00" arrivalLane="23800191#0_0" arrivalPos="143.94" arrivalSpeed="13.36" duration="46.00" routeLength="212.88" waitSteps="17" rerouteNo="1" devices="tripinfo_140107_140107_414 hbefa_140107_140107_414" vType="DEFAULT_VEHTYPE" vaporized="">
        <emissions CO_abs="788.168494" CO2_abs="66847.121701" HC_abs="23.085925" PMx_abs="6.830217" NOx_abs="131.071931" fuel_abs="26.650917"/>
    </tripinfo>
    <tripinfo id="95606_95606_394" depart="27000.00" departLane="8225148_0" departPos="5.10" departSpeed="0.00" departDelay="0.00" arrival="27047.00" arrivalLane="145261451_0" arrivalPos="86.92" arrivalSpeed="12.80" duration="47.00" routeLength="515.94" waitSteps="0" rerouteNo="0" devices="tripinfo_95606_95606_394 hbefa_95606_95606_394" vType="DEFAULT_VEHTYPE" vaporized="">
        <emissions CO_abs="1313.822911" CO2_abs="114135.181510" HC_abs="33.665684" PMx_abs="12.317770" NOx_abs="233.377769" fuel_abs="45.503950"/>
    </tripinfo>
    <tripinfo id="133750_133750_411" depart="27000.00" departLane="129833340#2_0" departPos="5.10" departSpeed="0.00" departDelay="0.00" arrival="27047.00" arrivalLane="150039002#2_0" arrivalPos="249.40" arrivalSpeed="13.16" duration="47.00" routeLength="596.79" waitSteps="0" rerouteNo="0" devices="tripinfo_133750_133750_411 hbefa_133750_133750_411" vType="DEFAULT_VEHTYPE" vaporized="">
        <emissions CO_abs="2031.487916" CO2_abs="145372.941866" HC_abs="45.468825" PMx_abs="17.564235" NOx_abs="311.037061" fuel_abs="57.957976"/>
    </tripinfo>
    <tripinfo id="244003_244003_453" depart="27029.00" departLane="-28523795_0" departPos="5.10" departSpeed="0.00" departDelay="0.00" arrival="27047.00" arrivalLane="-28523795_0" arrivalPos="192.02" arrivalSpeed="13.65" duration="18.00" routeLength="186.92" waitSteps="0" rerouteNo="1" devices="tripinfo_244003_244003_453 hbefa_244003_244003_453" vType="DEFAULT_VEHTYPE" vaporized="">