<?xml version="1.0" encoding="UTF-8"?>

<!-- generated on Wed Apr 30 15:17:01 2014 by SUMO sumo Version 0.19.0
<?xml version="1.0" encoding="UTF-8"?>

<configuration xmlns:xsi="http://www.w3.org/2001/XMLSchema-instance" xsi:noNamespaceSchemaLocation="http://sumo-sim.org/xsd/sumoConfiguration.xsd">

    <input>
        <net-file value="data/map.net.xml"/>
        <route-files value="data/map.rou.xml"/>
    </input>

    <output>
        <tripinfo-output value="data/maptripinfoLocal.out.xml"/>
        <save-state.prefix value="data/state"/>
    </output>

    <time>
        <begin value="27000"/>
        <end value="27900"/>
    </time>

    <processing>
        <route-steps value="200"/>
        <scale value="0.8"/>
        <time-to-teleport value="300"/>
        <lanechange.allow-swap value="true"/>
    </processing>

    <report>
        <verbose value="true"/>
        <no-warnings value="true"/>
        <no-step-log value="true"/>
    </report>

    <emissions>
        <device.hbefa.probability value="1"/>
    </emissions>

    <traci_server>
        <remote-port value="8814"/>
    </traci_server>

</configuration>
-->

<tripinfos>
    <tripinfo id="136022_136022_411" depart="27003.00" departLane="23800191#2_0" departPos="5.10" departSpeed="0.00" departDelay="3.00" arrival="27009.00" arrivalLane="23800191#2_0" arrivalPos="38.41" arrivalSpeed="11.63" duration="6.00" routeLength="33.31" waitSteps="0" rerouteNo="1" devices="tripinfo_136022_136022_411 hbefa_136022_136022_411" vType="DEFAULT_VEHTYPE" vaporized="">
        <emissions CO_abs="350.115311" CO2_abs="23512.362358" HC_abs="8.076351" PMx_abs="2.948505" NOx_abs="50.299199" fuel_abs="9.374014"/>
    </tripinfo>
    <tripinfo id="182087_182087_431" depart="27000.00" departLane="4380937#2_0" departPos="5.10" departSpeed="0.00" departDelay="0.00" arrival="27011.00" arrivalLane="4380937#3_0" arrivalPos="72.76" arrivalSpeed="13.52" duration="11.00" routeLength="103.50" waitSteps="0" rerouteNo="2" devices="tripinfo_182087_182087_431 hbefa_182087_182087_431" vType="DEFAULT_VEHTYPE" vaporized="">
        <emissions CO_abs="432.267273" CO2_abs="36579.019829" HC_abs="11.128761" PMx_abs="3.947071" NOx_abs="74.705329" fuel_abs="14.583494"/>
    </tripinfo>
    <tripinfo id="105435_105435_398" depart="27003.00" departLane="145474196#1_0" departPos="5.10" departSpeed="0.00" departDelay="3.00" arrival="27014.00" arrivalLane="145474196#1_0" arrivalPos="94.12" arrivalSpeed="13.33" duration="11.00" routeLength="89.02" waitSteps="0" rerouteNo="1" devices="tripinfo_105435_105435_398 hbefa_105435_105435_398" vType="DEFAULT_VEHTYPE" vaporized="">
        <emissions CO_abs="697.960818" CO2_abs="47224.294368" HC_abs="15.610538" PMx_abs="6.036903" NOx_abs="102.032404" fuel_abs="18.827597"/>
    </tripinfo>
    <tripinfo id="72912_72912_384" depart="27003.00" departLane="9207803_0" departPos="5.10" departSpeed="0.00" departDelay="3.00" arrival="27014.00" arrivalLane="9207803_0" arrivalPos="69.23" arrivalSpeed="7.13" duration="11.00" routeLength="64.13" waitSteps="0" rerouteNo="0" devices="tripinfo_72912_72912_384 hbefa_72912_72912_384" vType="DEFAULT_VEHTYPE" vaporized="">
        <emissions CO_abs="215.854735" CO2_abs="18883.852905" HC_abs="6.129550" PMx_abs="1.888607" NOx_abs="37.343649" fuel_abs="7.528699"/>
    </tripinfo>
    <tripinfo id="92380_92380_392" depart="27000.00" departLane="-154755073#3_0" departPos="5.10" departSpeed="0.00" departDelay="0.00" arrival="27015.00" arrivalLane="-154755073#3_0" arrivalPos="102.52" arrivalSpeed="7.24" duration="15.00" routeLength="97.42" waitSteps="0" rerouteNo="0" devices="tripinfo_92380_92380_392 hbefa_92380_92380_392" vType="DEFAULT_VEHTYPE" vaporized="">
        <emissions CO_abs="226.365096" CO2_abs="18864.652618" HC_abs="6.182680" PMx_abs="2.085848" NOx_abs="37.998464" fuel_abs="7.521044"/>
    </tripinfo>
    <tripinfo id="251564_251564_457" depart="27002.00" departLane="51113317_0" departPos="5.10" departSpeed="0.00" departDelay="0.00" arrival="27015.00" arrivalLane="51113317_0" arrivalPos="125.08" arrivalSpeed="13.40" duration="13.00" routeLength="119.98" waitSteps="0" rerouteNo="0" devices="tripinfo_251564_251564_457 hbefa_251564_251564_457" vType="DEFAULT_VEHTYPE" vaporized="">
        <emissions CO_abs="455.661648" CO2_abs="37371.783931" HC_abs="11.581016" PMx_abs="3.993063" NOx_abs="76.499526" fuel_abs="14.899556"/>
    </tripinfo>
    <tripinfo id="84049_84049_390" depart="27006.00" departLane="9207803_0" departPos="5.10" departSpeed="0.00" departDelay="6.00" arrival="27017.00" arrivalLane="9207803_0" arrivalPos="69.23" arrivalSpeed="7.79" duration="11.00" routeLength="64.13" waitSteps="0" rerouteNo="1" devices="tripinfo_84049_84049_390 hbefa_84049_84049_390" vType="DEFAULT_VEHTYPE" vaporized="">
        <emissions CO_abs="227.621265" CO2_abs="19267.578455" HC_abs="6.285494" PMx_abs="2.035584" NOx_abs="38.563245" fuel_abs="7.681684"/>
    </tripinfo>
    <tripinfo id="232041_232041_451" depart="27002.00" departLane="28523795_0" departPos="5.10" departSpeed="0.00" departDelay="0.00" arrival="27020.00" arrivalLane="28523795_0" arrivalPos="192.02" arrivalSpeed="13.56" duration="18.00" routeLength="186.92" waitSteps="0" rerouteNo="0" devices="tripinfo_232041_232041_451 hbefa_232041_232041_451" vType="DEFAULT_VEHTYPE" vaporized="">
        <emissions CO_abs="593.938157" CO2_abs="49715.229640" HC_abs="14.998338" PMx_abs="5.475313" NOx_abs="102.125263" fuel_abs="19.820700"/>
    </tripinfo>
    <tripinfo id="135880_135880_411" depart="27000.00" departLane="150039002#2_0" departPos="5.10" departSpeed="0.00" departDelay="0.00" arrival="27022.00" arrivalLane="150039002#2_0" arrivalPos="249.40" arrivalSpeed="13.73" duration="22.00" routeLength="244.30" waitSteps="0" rerouteNo="1" devices="tripinfo_135880_135880_411 hbefa_135880_135880_411" vType="DEFAULT_VEHTYPE" vaporized="">
        <emissions CO_abs="516.617321" CO2_abs="49553.517556" HC_abs="14.201504" PMx_abs="4.915798" NOx_abs="98.868854" fuel_abs="19.756230"/>
    </tripinfo>
    <tripinfo id="206737_206737_440" depart="27007.00" departLane="-29206900_0" departPos="5.10" departSpeed="0.00" departDelay="0.00" arrival="27022.00" arrivalLane="29207110_0" arrivalPos="28.94" arrivalSpeed="13.22" duration="15.00" routeLength="103.46" waitSteps="0" rerouteNo="1" devices="tripinfo_206737_206737_440 hbefa_206737_206737_440" vType="DEFAULT_VEHTYPE" vaporized="">
        <emissions CO_abs="535.026034" CO2_abs="39900.610800" HC_abs="13.097309" PMx_abs="4.648355" NOx_abs="83.225305" fuel_abs="15.907755"/>
    </tripinfo>
    <tripinfo id="110327_110327_401" depart="27000.00" departLane="53212166#0_0" departPos="5.10" departSpeed="0.00" departDelay="0.00" arrival="27023.00" arrivalLane="28542995#2_2" arrivalPos="61.74" arrivalSpeed="13.74" duration="23.00" routeLength="231.82" waitSteps="0" rerouteNo="1" devices="tripinfo_110327_110327_401 hbefa_110327_110327_401" vType="DEFAULT_VEHTYPE" vaporized="">
        <emissions CO_abs="617.674580" CO2_abs="53901.123862" HC_abs="16.115924" PMx_abs="5.874986" NOx_abs="109.817203" fuel_abs="21.489551"/>
    </tripinfo>
    <tripinfo id="225242_225242_449" depart="27000.00" departLane="154755124_0" departPos="5.10" departSpeed="0.00" departDelay="0.00" arrival="27023.00" arrivalLane="4380937#3_1" arrivalPos="72.76" arrivalSpeed="12.65" duration="23.00" routeLength="103.50" waitSteps="0" rerouteNo="2" devices="tripinfo_225242_225242_449 hbefa_225242_225242_449" vType="DEFAULT_VEHTYPE" vaporized="">
        <emissions CO_abs="648.904716" CO2_abs="51390.008888" HC_abs="16.184456" PMx_abs="5.890902" NOx_abs="106.404584" fuel_abs="20.488403"/>
    </tripinfo>
    <tripinfo id="105964_105964_399" depart="27014.00" departLane="145474196#1_0" departPos="5.10" departSpeed="0.00" departDelay="14.00" arrival="27024.00" arrivalLane="145474196#1_0" arrivalPos="94.12" arrivalSpeed="12.85" duration="10.00" routeLength="89.02" waitSteps="0" rerouteNo="1" devices="tripinfo_105964_105964_399 hbefa_105964_105964_399" vType="DEFAULT_VEHTYPE" vaporized="">
        <emissions CO_abs="493.276778" CO2_abs="34322.466177" HC_abs="11.305444" PMx_abs="4.292061" NOx_abs="73.443694" fuel_abs="13.683837"/>
    </tripinfo>
    <tripinfo id="148867_148867_417" depart="27006.00" departLane="3065455_0" departPos="5.10" departSpeed="0.00" departDelay="6.00" arrival="27024.00" arrivalLane="23800191#0_0" arrivalPos="143.94" arrivalSpeed="13.67" duration="18.00" routeLength="194.49" waitSteps="0" rerouteNo="1" devices="tripinfo_148867_148867_417 hbefa_148867_148867_417" vType="DEFAULT_VEHTYPE" vaporized="">
        <emissions CO_abs="490.709050" CO2_abs="48170.654779" HC_abs="13.627762" PMx_abs="4.910186" NOx_abs="96.163937" fuel_abs="19.204905"/>
    </tripinfo>
    <tripinfo id="141415_141415_415" depart="27003.00" departLane="150039002#2_0" departPos="5.10" departSpeed="0.00" departDelay="3.00" arrival="27025.00" arrivalLane="150039002#2_0" arrivalPos="249.40" arrivalSpeed="13.56" duration="22.00" routeLength="244.30" waitSteps="0" rerouteNo="1" devices="tripinfo_141415_141415_415 hbefa_141415_141415_415" vType="DEFAULT_VEHTYPE" vaporized="">
        <emissions CO_abs="536.626916" CO2_abs="52261.975188" HC_abs="14.912017" PMx_abs="5.154518" NOx_abs="104.004816" fuel_abs="20.836051"/>
    </tripinfo>
    <tripinfo id="75851_75851_386" depart="27002.00" departLane="28542995#2_0" departPos="5.10" departSpeed="0.00" departDelay="2.00" arrival="27025.00" arrivalLane="23493181#0_0" arrivalPos="88.20" arrivalSpeed="10.53" duration="23.00" routeLength="144.84" waitSteps="0" rerouteNo="1" devices="tripinfo_75851_75851_386 hbefa_75851_75851_386" vType="DEFAULT_VEHTYPE" vaporized="">
        <emissions CO_abs="501.273855" CO2_abs="41483.760209" HC_abs="13.410793" PMx_abs="4.550625" NOx_abs="84.019557" fuel_abs="16.538932"/>
    </tripinfo>
    <tripinfo id="225541_225541_450" depart="27000.00" departLane="9207803_0" departPos="5.10" departSpeed="0.00" departDelay="0.00" arrival="27025.00" arrivalLane="154755073#3_0" arrivalPos="102.52" arrivalSpeed="8.23" duration="25.00" routeLength="166.65" waitSteps="0" rerouteNo="1" devices="tripinfo_225541_225541_450 hbefa_225541_225541_450" vType="DEFAULT_VEHTYPE" vaporized="">
        <emissions CO_abs="373.355117" CO2_abs="36691.131483" HC_abs="11.286922" PMx_abs="3.535153" NOx_abs="71.318150" fuel_abs="14.628185"/>
    </tripinfo>
    <tripinfo id="219187_219187_446" depart="27000.00" departLane="144935690_0" departPos="5.10" departSpeed="0.00" departDelay="0.00" arrival="27025.00" arrivalLane="25997632_0" arrivalPos="136.14" arrivalSpeed="13.49" duration="25.00" routeLength="241.37" waitSteps="0" rerouteNo="1" devices="tripinfo_219187_219187_446 hbefa_219187_219187_446" vType="DEFAULT_VEHTYPE" vaporized="">
        <emissions CO_abs="574.723684" CO2_abs="54605.195085" HC_abs="16.113602" PMx_abs="5.360004" NOx_abs="108.313351" fuel_abs="21.770255"/>
    </tripinfo>
    <tripinfo id="136596_136596_411" depart="27003.00" departLane="131651824_0" departPos="5.10" departSpeed="0.00" departDelay="3.00" arrival="27027.00" arrivalLane="4400211#0_0" arrivalPos="197.56" arrivalSpeed="13.11" duration="24.00" routeLength="253.49" waitSteps="0" rerouteNo="1" devices="tripinfo_136596_136596_411 hbefa_136596_136596_411" vType="DEFAULT_VEHTYPE" vaporized="">
        <emissions CO_abs="686.497657" CO2_abs="62719.071584" HC_abs="18.267385" PMx_abs="6.505616" NOx_abs="126.655925" fuel_abs="25.005134"/>
    </tripinfo>
    <tripinfo id="220353_220353_447" depart="27001.00" departLane="-165515969#3_0" departPos="5.10" departSpeed="0.00" departDelay="0.00" arrival="27027.00" arrivalLane="-165511531#0_0" arrivalPos="53.73" arrivalSpeed="13.23" duration="26.00" routeLength="345.81" waitSteps="0" rerouteNo="2" devices="tripinfo_220353_220353_447 hbefa_220353_220353_447" vType="DEFAULT_VEHTYPE" vaporized="">
        <emissions CO_abs="2174.415860" CO2_abs="132321.738743" HC_abs="44.185174" PMx_abs="17.033487" NOx_abs="293.380116" fuel_abs="52.754674"/>
    </tripinfo>
    <tripinfo id="134089_134089_411" depart="27000.00" departLane="23800191#2_0" departPos="5.10" departSpeed="0.00" departDelay="0.00" arrival="27028.00" arrivalLane="4400211#0_0" arrivalPos="197.56" arrivalSpeed="12.00" duration="28.00" routeLength="291.90" waitSteps="0" rerouteNo="1" devices="tripinfo_134089_134089_411 hbefa_134089_134089_411" vType="DEFAULT_VEHTYPE" vaporized="">
        <emissions CO_abs="742.631796" CO2_abs="70299.153037" HC_abs="20.221831" PMx_abs="7.276886" NOx_abs="141.107518" fuel_abs="28.027196"/>
    </tripinfo>
    <tripinfo id="84113_84113_390" depart="27000.00" departLane="150031205#0_0" departPos="5.10" departSpeed="0.00" departDelay="0.00" arrival="27028.00" arrivalLane="23471158#10_0" arrivalPos="144.68" arrivalSpeed="26.78" duration="28.00" routeLength="462.65" waitSteps="0" rerouteNo="0" devices="tripinfo_84113_84113_390 hbefa_84113_84113_390" vType="DEFAULT_VEHTYPE" vaporized="">
        <emissions CO_abs="2697.997289" CO2_abs="153186.793655" HC_abs="52.117194" PMx_abs="19.812682" NOx_abs="344.346775" fuel_abs="61.073296"/>
    </tripinfo>
    <tripinfo id="104726_104726_398" depart="27000.00" departLane="23471158#5_0" departPos="5.10" departSpeed="0.00" departDelay="0.00" arrival="27031.00" arrivalLane="32856811#2_0" arrivalPos="144.91" arrivalSpeed="13.49" duration="31.00" routeLength="464.21" waitSteps="0" rerouteNo="0" devices="tripinfo_104726_104726_398 hbefa_104726_104726_398" vType="DEFAULT_VEHTYPE" vaporized="">
        <emissions CO_abs="2123.301067" CO2_abs="128881.329846" HC_abs="42.895459" PMx_abs="16.390548" NOx_abs="285.369311" fuel_abs="51.383049"/>
    </tripinfo>
    <tripinfo id="188835_188835_434" depart="27006.00" departLane="187965762#1_0" departPos="5.10" departSpeed="0.00" departDelay="6.00" arrival="27031.00" arrivalLane="187965762#2_0" arrivalPos="85.18" arrivalSpeed="7.51" duration="25.00" routeLength="168.92" waitSteps="0" rerouteNo="1" devices="tripinfo_188835_188835_434 hbefa_188835_188835_434" vType="DEFAULT_VEHTYPE" vaporized="">
        <emissions CO_abs="204.919019" CO2_abs="30314.521418" HC_abs="8.613178" PMx_abs="2.382895" NOx_abs="54.705962" fuel_abs="12.085931"/>
    </tripinfo>
    <tripinfo id="122617_122617_406" depart="27000.00" departLane="131651824_0" departPos="5.10" departSpeed="0.00" departDelay="0.00" arrival="27031.00" arrivalLane="130875842_0" arrivalPos="81.21" arrivalSpeed="13.58" duration="31.00" routeLength="334.70" waitSteps="0" rerouteNo="1" devices="tripinfo_122617_122617_406 hbefa_122617_122617_406" vType="DEFAULT_VEHTYPE" vaporized="">
        <emissions CO_abs="956.952838" CO2_abs="75527.981909" HC_abs="23.318861" PMx_abs="8.517668" NOx_abs="157.097671" fuel_abs="30.111846"/>
    </tripinfo>
    <tripinfo id="187318_187318_433" depart="27013.00" departLane="-83823403#2_0" departPos="5.10" departSpeed="0.00" departDelay="0.00" arrival="27032.00" arrivalLane="-83823403#2_0" arrivalPos="184.87" arrivalSpeed="10.52" duration="19.00" routeLength="179.77" waitSteps="0" rerouteNo="0" devices="tripinfo_187318_187318_433 hbefa_187318_187318_433" vType="DEFAULT_VEHTYPE" vaporized="">
        <emissions CO_abs="655.331437" CO2_abs="53546.681010" HC_abs="16.510640" PMx_abs="5.866090" NOx_abs="110.121403" fuel_abs="21.348238"/>
    </tripinfo>
    <tripinfo id="103637_103637_397" depart="27000.00" departLane="145474196#1_0" departPos="5.10" departSpeed="0.00" departDelay="0.00" arrival="27033.00" arrivalLane="150039002#2_1" arrivalPos="249.40" arrivalSpeed="13.43" duration="33.00" routeLength="361.28" waitSteps="0" rerouteNo="1" devices="tripinfo_103637_103637_397 hbefa_103637_103637_397" vType="DEFAULT_VEHTYPE" vaporized="">
        <emissions CO_abs="1079.815353" CO2_abs="85360.880431" HC_abs="26.111967" PMx_abs="9.822012" NOx_abs="178.180593" fuel_abs="34.032073"/>
    </tripinfo>
    <tripinfo id="212444_212444_443" depart="27003.00" departLane="166155712#0_0" departPos="5.10" departSpeed="0.00" departDelay="0.00" arrival="27033.00" arrivalLane="33469672_0" arrivalPos="142.78" arrivalSpeed="12.95" duration="30.00" routeLength="317.06" waitSteps="0" rerouteNo="1" devices="tripinfo_212444_212444_443 hbefa_212444_212444_443" vType="DEFAULT_VEHTYPE" vaporized="">
        <emissions CO_abs="898.551641" CO2_abs="72770.218195" HC_abs="22.201510" PMx_abs="8.205434" NOx_abs="150.779116" fuel_abs="29.012369"/>
    </tripinfo>
    <tripinfo id="208001_208001_441" depart="27001.00" departLane="-83823403#2_0" departPos="5.10" departSpeed="0.00" departDelay="0.00" arrival="27034.00" arrivalLane="23015529#0_0" arrivalPos="184.87" arrivalSpeed="13.18" duration="33.00" routeLength="364.64" waitSteps="0" rerouteNo="1" devices="tripinfo_208001_208001_441 hbefa_208001_208001_441" vType="DEFAULT_VEHTYPE" vaporized="">
        <emissions CO_abs="947.633302" CO2_abs="80389.249315" HC_abs="23.982496" PMx_abs="8.669306" NOx_abs="164.857055" fuel_abs="32.049963"/>
    </tripinfo>
    <tripinfo id="217202_217202_446" depart="27007.00" departLane="-83823403#2_0" departPos="5.10" departSpeed="0.00" departDelay="0.00" arrival="27034.00" arrivalLane="23015533_0" arrivalPos="110.79" arrivalSpeed="13.30" duration="27.00" routeLength="290.56" waitSteps="0" rerouteNo="1" devices="tripinfo_217202_217202_446 hbefa_217202_217202_446" vType="DEFAULT_VEHTYPE" vaporized="">
        <emissions CO_abs="886.536616" CO2_abs="73037.940191" HC_abs="22.075648" PMx_abs="8.130215" NOx_abs="150.864157" fuel_abs="29.119106"/>
    </tripinfo>
    <tripinfo id="146563_146563_416" depart="27004.00" departLane="129833340#2_0" departPos="5.10" departSpeed="0.00" departDelay="4.00" arrival="27035.00" arrivalLane="154755096_0" arrivalPos="66.91" arrivalSpeed="13.82" duration="31.00" routeLength="417.33" waitSteps="0" rerouteNo="1" devices="tripinfo_146563_146563_416 hbefa_146563_146563_416" vType="DEFAULT_VEHTYPE" vaporized="">
        <emissions CO_abs="2213.068792" CO2_abs="139587.118375" HC_abs="45.839096" PMx_abs="17.129237" NOx_abs="305.492560" fuel_abs="55.651282"/>
    </tripinfo>
    <tripinfo id="103310_103310_397" depart="27000.00" departLane="83703645_0" departPos="5.10" departSpeed="0.00" departDelay="0.00" arrival="27035.00" arrivalLane="23493177#0_0" arrivalPos="166.52" arrivalSpeed="7.73" duration="35.00" routeLength="279.85" waitSteps="0" rerouteNo="1" devices="tripinfo_103310_103310_397 hbefa_103310_103310_397" vType="DEFAULT_VEHTYPE" vaporized="">
        <emissions CO_abs="515.585693" CO2_abs="58411.795485" HC_abs="16.708576" PMx_abs="5.409589" NOx_abs="111.963624" fuel_abs="23.287883"/>
    </tripinfo>
    <tripinfo id="144652_144652_416" depart="27000.00" departLane="3065455_0" departPos="5.10" departSpeed="0.00" departDelay="0.00" arrival="27036.00" arrivalLane="130659365_0" arrivalPos="223.21" arrivalSpeed="5.81" duration="36.00" routeLength="365.42" waitSteps="0" rerouteNo="0" devices="tripinfo_144652_144652_416 hbefa_144652_144652_416" vType="DEFAULT_VEHTYPE" vaporized="">
        <emissions CO_abs="826.677675" CO2_abs="70401.301475" HC_abs="21.270124" PMx_abs="7.602237" NOx_abs="143.804415" fuel_abs="28.067919"/>
    </tripinfo>
    <tripinfo id="154499_154499_420" depart="27000.00" departLane="28542995#0_0" departPos="5.10" departSpeed="0.00" departDelay="0.00" arrival="27037.00" arrivalLane="23493260#4_1" arrivalPos="126.60" arrivalSpeed="13.46" duration="37.00" routeLength="435.19" waitSteps="0" rerouteNo="0" devices="tripinfo_154499_154499_420 hbefa_154499_154499_420" vType="DEFAULT_VEHTYPE" vaporized="">
        <emissions CO_abs="1023.078939" CO2_abs="88235.870500" HC_abs="26.081972" PMx_abs="9.470035" NOx_abs="180.549146" fuel_abs="35.178291"/>
    </tripinfo>
    <tripinfo id="108705_108705_400" depart="27000.00" departLane="36454807#3_0" departPos="5.10" departSpeed="0.00" departDelay="0.00" arrival="27039.00" arrivalLane="32856811#2_0" arrivalPos="144.91" arrivalSpeed="13.65" duration="39.00" routeLength="538.02" waitSteps="0" rerouteNo="1" devices="tripinfo_108705_108705_400 hbefa_108705_108705_400" vType="DEFAULT_VEHTYPE" vaporized="">
        <emissions CO_abs="2586.086182" CO2_abs="162355.714610" HC_abs="53.268047" PMx_abs="20.683301" NOx_abs="357.610092" fuel_abs="64.728770"/>
    </tripinfo>
    <tripinfo id="238887_238887_451" depart="27010.00" departLane="-83823403#2_0" departPos="5.10" departSpeed="0.00" departDelay="0.00" arrival="27039.00" arrivalLane="23015533_0" arrivalPos="110.79" arrivalSpeed="13.38" duration="29.00" routeLength="290.56" waitSteps="0" rerouteNo="0" devices="tripinfo_238887_238887_451 hbefa_238887_238887_451" vType="DEFAULT_VEHTYPE" vaporized="">
        <emissions CO_abs="977.355130" CO2_abs="79994.649418" HC_abs="24.174004" PMx_abs="9.149045" NOx_abs="165.839689" fuel_abs="31.892640"/>
    </tripinfo>
    <tripinfo id="171544_171544_426" depart="27000.00" departLane="187965762#1_0" departPos="5.10" departSpeed="0.00" departDelay="0.00" arrival="27040.00" arrivalLane="23800191#0_0" arrivalPos="143.94" arrivalSpeed="12.69" duration="40.00" routeLength="368.51" waitSteps="0" rerouteNo="1" devices="tripinfo_171544_171544_426 hbefa_171544_171544_426" vType="DEFAULT_VEHTYPE" vaporized="">
        <emissions CO_abs="599.792318" CO2_abs="62770.922643" HC_abs="18.103118" PMx_abs="5.842603" NOx_abs="122.153338" fuel_abs="25.025803"/>
    </tripinfo>
    <tripinfo id="138122_138122_412" depart="27009.00" departLane="131651824_0" departPos="5.10" departSpeed="0.00" departDelay="9.00" arrival="27040.00" arrivalLane="130875842_0" arrivalPos="81.21" arrivalSpeed="12.79" duration="31.00" routeLength="334.70" waitSteps="0" rerouteNo="0" devices="tripinfo_138122_138122_412 hbefa_138122_138122_412" vType="DEFAULT_VEHTYPE" vaporized="">
        <emissions CO_abs="934.341430" CO2_abs="76289.220263" HC_abs="23.157227" PMx_abs="8.579970" NOx_abs="157.854651" fuel_abs="30.415342"/>
    </tripinfo>
    <tripinfo id="218769_218769_446" depart="27003.00" departLane="-55940134_0" departPos="5.10" departSpeed="0.00" departDelay="3.00" arrival="27041.00" arrivalLane="-144935692#1_1" arrivalPos="103.61" arrivalSpeed="13.50" duration="38.00" routeLength="447.77" waitSteps="0" rerouteNo="1" devices="tripinfo_218769_218769_446 hbefa_218769_218769_446" vType="DEFAULT_VEHTYPE" vaporized="">
        <emissions CO_abs="681.436350" CO2_abs="72204.043885" HC_abs="19.784887" PMx_abs="6.835091" NOx_abs="141.986482" fuel_abs="28.786654"/>
    </tripinfo>
    <tripinfo id="244420_244420_453" depart="27015.00" departLane="-165515969#3_0" departPos="5.10" departSpeed="0.00" departDelay="0.00" arrival="27041.00" arrivalLane="-165511531#0_0" arrivalPos="53.73" arrivalSpeed="12.76" duration="26.00" routeLength="345.81" waitSteps="0" rerouteNo="1" devices="tripinfo_244420_244420_453 hbefa_244420_244420_453" vType="DEFAULT_VEHTYPE" vaporized="">
        <emissions CO_abs="2264.411627" CO2_abs="135565.490027" HC_abs="45.641411" PMx_abs="17.747227" NOx_abs="302.041258" fuel_abs="54.047907"/>
    </tripinfo>
    <tripinfo id="118681_118681_405" depart="27000.00" departLane="23471158#6_0" departPos="5.10" departSpeed="0.00" departDelay="0.00" arrival="27042.00" arrivalLane="32856811#2_1" arrivalPos="144.91" arrivalSpeed="13.03" duration="42.00" routeLength="447.44" waitSteps="0" rerouteNo="1" devices="tripinfo_118681_118681_405 hbefa_118681_118681_405" vType="DEFAULT_VEHTYPE" vaporized="">
        <emissions CO_abs="1224.935266" CO2_abs="104402.801642" HC_abs="31.031972" PMx_abs="11.127642" NOx_abs="213.667847" fuel_abs="41.623800"/>
    </tripinfo>
    <tripinfo id="211099_211099_442" depart="27013.00" departLane="166155712#0_0" departPos="5.10" departSpeed="0.00" departDelay="0.00" arrival="27043.00" arrivalLane="33469672_0" arrivalPos="142.78" arrivalSpeed="12.60" duration="30.00" routeLength="317.06" waitSteps="0" rerouteNo="1" devices="tripinfo_211099_211099_442 hbefa_211099_211099_442" vType="DEFAULT_VEHTYPE" vaporized="">
        <emissions CO_abs="951.339258" CO2_abs="78687.541135" HC_abs="23.708143" PMx_abs="8.942439" NOx_abs="162.720813" fuel_abs="31.371516"/>
    </tripinfo>
    <tripinfo id="197472_197472_436" depart="27006.00" departLane="23800191#2_0" departPos="5.10" departSpeed="0.00" departDelay="6.00" arrival="27043.00" arrivalLane="130875842_0" arrivalPos="81.21" arrivalSpeed="12.87" duration="37.00" routeLength="373.11" waitSteps="0" rerouteNo="0" devices="tripinfo_197472_197472_436 hbefa_197472_197472_436" vType="DEFAULT_VEHTYPE" vaporized="">
        <emissions CO_abs="932.617147" CO2_abs="84761.795192" HC_abs="25.035312" PMx_abs="8.739925" NOx_abs="170.634335" fuel_abs="33.793228"/>
    </tripinfo>
    <tripinfo id="212327_212327_442" depart="27014.00" departLane="198147972_0" departPos="5.10" departSpeed="0.00" departDelay="0.00" arrival="27043.00" arrivalLane="4353628#1_0" arrivalPos="68.95" arrivalSpeed="13.14" duration="29.00" routeLength="339.08" waitSteps="0" rerouteNo="1" devices="tripinfo_212327_212327_442 hbefa_212327_212327_442" vType="DEFAULT_VEHTYPE" vaporized="">
        <emissions CO_abs="579.079150" CO2_abs="65400.455288" HC_abs="17.503294" PMx_abs="6.176462" NOx_abs="127.674620" fuel_abs="26.074168"/>
    </tripinfo>
    <tripinfo id="184987_184987_431" depart="27000.00" departLane="-186463490#0_0" departPos="5.10" departSpeed="0.00" departDelay="0.00" arrival="27044.00" arrivalLane="-144935692#1_0" arrivalPos="103.61" arrivalSpeed="12.80" duration="44.00" routeLength="500.46" waitSteps="0" rerouteNo="1" devices="tripinfo_184987_184987_431 hbefa_184987_184987_431" vType="DEFAULT_VEHTYPE" vaporized="">
        <emissions CO_abs="971.063097" CO2_abs="94259.807127" HC_abs="26.976583" PMx_abs="9.273206" NOx_abs="187.508268" fuel_abs="37.579944"/>
    </tripinfo>
    <tripinfo id="224931_224931_449" depart="27026.00" departLane="-28523795_0" departPos="5.10" departSpeed="0.00" departDelay="0.00" arrival="27044.00" arrivalLane="-28523795_0" arrivalPos="192.02" arrivalSpeed="12.68" duration="18.00" routeLength="186.92" waitSteps="0" rerouteNo="1" devices="tripinfo_224931_224931_449 hbefa_224931_224931_449" vType="DEFAULT_VEHTYPE" vaporized="">
        <emissions CO_abs="474.575606" CO2_abs="42461.384145" HC_abs="12.606543" PMx_abs="4.421079" NOx_abs="85.743324" fuel_abs="16.928703"/>
    </tripinfo>
    <tripinfo id="101376_101376_396" depart="27003.00" departLane="23471158#0_0" departPos="5.10" departSpeed="0.00" departDelay="3.00" arrival="27044.00" arrivalLane="32856811#2_0" arrivalPos="144.91" arrivalSpeed="13.24" duration="41.00" routeLength="664.02" waitSteps="0" rerouteNo="0" devices="tripinfo_101376_101376_396 hbefa_101376_101376_396" vType="DEFAULT_VEHTYPE" vaporized="">
        <emissions CO_abs="3320.947306" CO2_abs="202044.907697" HC_abs="66.694455" PMx_abs="26.303761" NOx_abs="449.644468" fuel_abs="80.552255"/>
    </tripinfo>
    <tripinfo id="245947_245947_454" depart="27016.00" departLane="-83823403#2_0" departPos="5.10" departSpeed="0.00" departDelay="0.00" arrival="27045.00" arrivalLane="23015533_0" arrivalPos="110.79" arrivalSpeed="12.75" duration="29.00" routeLength="290.56" waitSteps="0" rerouteNo="0" devices="tripinfo_245947_245947_454 hbefa_245947_245947_454" vType="DEFAULT_VEHTYPE" vaporized="">
        <emissions CO_abs="1036.394529" CO2_abs="75952.153489" HC_abs="24.283119" PMx_abs="8.889875" NOx_abs="160.323891" fuel_abs="30.280953"/>
    </tripinfo>
    <tripinfo id="244003_244003_453" depart="27029.00" departLane="-28523795_0" departPos="5.10" departSpeed="0.00" departDelay="0.00" arrival="27046.00" arrivalLane="-28523795_0" arrivalPos="192.02" arrivalSpeed="12.88" duration="17.00" routeLength="186.92" waitSteps="0" rerouteNo="1" devices="tripinfo_244003_244003_453 hbefa_244003_244003_453" vType="DEFAULT_VEHTYPE" vaporized="">
        <emissions CO_abs="453.587197" CO2_abs="42121.197431" HC_abs="12.230404" PMx_abs="4.450799" NOx_abs="84.944935" fuel_abs="16.793077"/>
    </tripinfo>
    <tripinfo id="227630_227630_450" depart="27017.00" departLane="166155712#0_0" departPos="5.10" departSpeed="0.00" departDelay="0.00" arrival="27047.00" arrivalLane="33469672_0" arrivalPos="142.78" arrivalSpeed="13.03" duration="30.00" routeLength="317.06" waitSteps="0" rerouteNo="0" devices="tripinfo_227630_227630_450 hbefa_227630_227630_450" vType="DEFAULT_VEHTYPE" vaporized="">
        <emissions CO_abs="800.359094" CO2_abs="68049.790821" HC_abs="20.514290" PMx_abs="7.293198" NOx_abs="138.936775" fuel_abs="27.130407"/>
    </tripinfo>
    <tripinfo id="221885_221885_448" depart="27017.00" departLane="-175607927#0_0" departPos="5.10" departSpeed="0.00" departDelay="0.00" arrival="27047.00" arrivalLane="-29214406_0" arrivalPos="179.38" arrivalSpeed="12.74" duration="30.00" routeLength="317.06" waitSteps="0" rerouteNo="1" devices="tripinfo_221885_221885_448 hbefa_221885_221885_448" vType="DEFAULT_VEHTYPE" vaporized="">
        <emissions CO_abs="862.552380" CO2_abs="76104.075089" HC_abs="22.465092" PMx_abs="8.049442" NOx_abs="154.724948" fuel_abs="30.341529"/>
    </tripinfo>
    <tripinfo id="95606_95606_394" depart="27000.00" departLane="8225148_0" departPos="5.10" departSpeed="0.00" departDelay="0.00" arrival="27049.00" arrivalLane="145261451_0" arrivalPos="86.92" arrivalSpeed="13.52" duration="49.00" routeLength="515.94" waitSteps="0" rerouteNo="1" devices="tripinfo_95606_95606_394 hbefa_95606_95606_394" vType="DEFAULT_VEHTYPE" vaporized="">
        <emissions CO_abs="1394.216120" CO2_abs="108569.884397" HC_abs="33.709326" PMx_abs="12.463461" NOx_abs="226.608878" fuel_abs="43.285144"/>
    </tripinfo>
    <tripinfo id="193075_193075_435" depart="27009.00" departLane="187965762#1_0" departPos="5.10" departSpeed="0.00" departDelay="9.00" arrival="27049.00" arrivalLane="23800191#0_0" arrivalPos="143.94" arrivalSpeed="13.21" duration="40.00" routeLength="368.51" waitSteps="0" rerouteNo="1" devices="tripinfo_193075_193075_435 hbefa_193075_193075_435" vType="DEFAULT_VEHTYPE" vaporized="">