<?xml version="1.0" encoding="UTF-8"?>

<!-- generated on Wed Mar  5 17:52:19 2014 by SUMO sumo Version dev-SVN-r15641
<?xml version="1.0" encoding="UTF-8"?>

<configuration xmlns:xsi="http://www.w3.org/2001/XMLSchema-instance" xsi:noNamespaceSchemaLocation="http://sumo-sim.org/xsd/sumoConfiguration.xsd">

    <input>
        <net-file value="data/map.net.xml"/>
        <route-files value="data/map.rou.xml"/>
    </input>

    <output>
        <tripinfo-output value="data/maptripinfoLocal.out.xml"/>
        <save-state.prefix value="data/state"/>
    </output>

    <time>
        <begin value="27000"/>
        <end value="27900"/>
    </time>

    <processing>
        <route-steps value="200"/>
        <scale value="0.8"/>
        <time-to-teleport value="300"/>
        <lanechange.allow-swap value="true"/>
    </processing>

    <report>
        <verbose value="true"/>
        <no-warnings value="true"/>
        <no-step-log value="true"/>
    </report>

    <emissions>
        <device.hbefa.probability value="1"/>
    </emissions>

    <traci_server>
        <remote-port value="8814"/>
    </traci_server>

</configuration>
-->

<tripinfos>
    <tripinfo id="136022_136022_411" depart="27003.00" departLane="23800191#2_0" departPos="5.10" departSpeed="0.00" departDelay="3.00" arrival="27009.00" arrivalLane="23800191#2_0" arrivalPos="38.41" arrivalSpeed="12.18" duration="6.00" routeLength="33.31" waitSteps="0" rerouteNo="0" devices="tripinfo_136022_136022_411 hbefa_136022_136022_411" vType="DEFAULT_VEHTYPE" vaporized="">
        <emissions CO_abs="383.271785" CO2_abs="25345.917858" HC_abs="8.681092" PMx_abs="3.223238" NOx_abs="54.596455" fuel_abs="10.105024"/>
    </tripinfo>
    <tripinfo id="182087_182087_431" depart="27000.00" departLane="4380937#2_0" departPos="5.10" departSpeed="0.00" departDelay="0.00" arrival="27011.00" arrivalLane="4380937#3_0" arrivalPos="72.76" arrivalSpeed="12.85" duration="11.00" routeLength="103.50" waitSteps="0" rerouteNo="1" devices="tripinfo_182087_182087_431 hbefa_182087_182087_431" vType="DEFAULT_VEHTYPE" vaporized="">
        <emissions CO_abs="505.889599" CO2_abs="37267.848780" HC_abs="11.874350" PMx_abs="4.542052" NOx_abs="78.859185" fuel_abs="14.858118"/>
    </tripinfo>
    <tripinfo id="105435_105435_398" depart="27003.00" departLane="145474196#1_0" departPos="5.10" departSpeed="0.00" departDelay="3.00" arrival="27013.00" arrivalLane="145474196#1_0" arrivalPos="94.12" arrivalSpeed="13.32" duration="10.00" routeLength="89.02" waitSteps="0" rerouteNo="0" devices="tripinfo_105435_105435_398 hbefa_105435_105435_398" vType="DEFAULT_VEHTYPE" vaporized="">
        <emissions CO_abs="416.313627" CO2_abs="33304.564921" HC_abs="10.440617" PMx_abs="3.716541" NOx_abs="68.695727" fuel_abs="13.278017"/>
    </tripinfo>
    <tripinfo id="72912_72912_384" depart="27003.00" departLane="9207803_0" departPos="5.10" departSpeed="0.00" departDelay="3.00" arrival="27013.00" arrivalLane="9207803_0" arrivalPos="69.23" arrivalSpeed="7.03" duration="10.00" routeLength="64.13" waitSteps="0" rerouteNo="0" devices="tripinfo_72912_72912_384 hbefa_72912_72912_384" vType="DEFAULT_VEHTYPE" vaporized="">
        <emissions CO_abs="207.402144" CO2_abs="18624.568651" HC_abs="5.942272" PMx_abs="1.935068" NOx_abs="36.904150" fuel_abs="7.425326"/>
    </tripinfo>
    <tripinfo id="92380_92380_392" depart="27000.00" departLane="-154755073#3_0" departPos="5.10" departSpeed="0.00" departDelay="0.00" arrival="27015.00" arrivalLane="-154755073#3_0" arrivalPos="102.52" arrivalSpeed="7.75" duration="15.00" routeLength="97.42" waitSteps="0" rerouteNo="0" devices="tripinfo_92380_92380_392 hbefa_92380_92380_392" vType="DEFAULT_VEHTYPE" vaporized="">
        <emissions CO_abs="250.439627" CO2_abs="24820.670959" HC_abs="7.672445" PMx_abs="2.491413" NOx_abs="48.315803" fuel_abs="9.895617"/>
    </tripinfo>
    <tripinfo id="251564_251564_457" depart="27002.00" departLane="51113317_0" departPos="5.10" departSpeed="0.00" departDelay="0.00" arrival="27015.00" arrivalLane="51113317_0" arrivalPos="125.08" arrivalSpeed="12.83" duration="13.00" routeLength="119.98" waitSteps="0" rerouteNo="0" devices="tripinfo_251564_251564_457 hbefa_251564_251564_457" vType="DEFAULT_VEHTYPE" vaporized="">
        <emissions CO_abs="428.940870" CO2_abs="35594.060249" HC_abs="10.983105" PMx_abs="3.909204" NOx_abs="72.888649" fuel_abs="14.190805"/>
    </tripinfo>
    <tripinfo id="84049_84049_390" depart="27006.00" departLane="9207803_0" departPos="5.10" departSpeed="0.00" departDelay="6.00" arrival="27016.00" arrivalLane="9207803_0" arrivalPos="69.23" arrivalSpeed="8.02" duration="10.00" routeLength="64.13" waitSteps="0" rerouteNo="0" devices="tripinfo_84049_84049_390 hbefa_84049_84049_390" vType="DEFAULT_VEHTYPE" vaporized="">
        <emissions CO_abs="192.747470" CO2_abs="16303.752776" HC_abs="5.331300" PMx_abs="1.735428" NOx_abs="32.635993" fuel_abs="6.500053"/>
    </tripinfo>
    <tripinfo id="232041_232041_451" depart="27002.00" departLane="28523795_0" departPos="5.10" departSpeed="0.00" departDelay="0.00" arrival="27019.00" arrivalLane="28523795_0" arrivalPos="192.02" arrivalSpeed="12.94" duration="17.00" routeLength="186.92" waitSteps="0" rerouteNo="0" devices="tripinfo_232041_232041_451 hbefa_232041_232041_451" vType="DEFAULT_VEHTYPE" vaporized="">
        <emissions CO_abs="526.665207" CO2_abs="48083.085966" HC_abs="13.984869" PMx_abs="5.008252" NOx_abs="97.173469" fuel_abs="19.169991"/>
    </tripinfo>
    <tripinfo id="75851_75851_386" depart="27002.00" departLane="28542995#2_0" departPos="5.10" departSpeed="0.00" departDelay="2.00" arrival="27020.00" arrivalLane="23493181#0_0" arrivalPos="88.20" arrivalSpeed="10.00" duration="18.00" routeLength="144.84" waitSteps="1" rerouteNo="0" devices="tripinfo_75851_75851_386 hbefa_75851_75851_386" vType="DEFAULT_VEHTYPE" vaporized="">
        <emissions CO_abs="556.366907" CO2_abs="42511.150732" HC_abs="13.774982" PMx_abs="4.884901" NOx_abs="88.256161" fuel_abs="16.948539"/>
    </tripinfo>
    <tripinfo id="225242_225242_449" depart="27000.00" departLane="154755124_0" departPos="5.10" departSpeed="0.00" departDelay="0.00" arrival="27022.00" arrivalLane="4380937#3_1" arrivalPos="72.76" arrivalSpeed="13.07" duration="22.00" routeLength="189.24" waitSteps="0" rerouteNo="1" devices="tripinfo_225242_225242_449 hbefa_225242_225242_449" vType="DEFAULT_VEHTYPE" vaporized="">
        <emissions CO_abs="654.017111" CO2_abs="52178.247778" HC_abs="16.361060" PMx_abs="5.900283" NOx_abs="107.834159" fuel_abs="20.802662"/>
    </tripinfo>
    <tripinfo id="135880_135880_411" depart="27000.00" departLane="150039002#2_0" departPos="5.10" departSpeed="0.00" departDelay="0.00" arrival="27022.00" arrivalLane="150039002#2_0" arrivalPos="249.40" arrivalSpeed="12.71" duration="22.00" routeLength="244.30" waitSteps="0" rerouteNo="0" devices="tripinfo_135880_135880_411 hbefa_135880_135880_411" vType="DEFAULT_VEHTYPE" vaporized="">
        <emissions CO_abs="512.438413" CO2_abs="50722.189274" HC_abs="14.327050" PMx_abs="5.080666" NOx_abs="100.809982" fuel_abs="20.222163"/>
    </tripinfo>
    <tripinfo id="219187_219187_446" depart="27000.00" departLane="144935690_0" departPos="5.10" departSpeed="0.00" departDelay="0.00" arrival="27022.00" arrivalLane="25997632_0" arrivalPos="136.14" arrivalSpeed="13.30" duration="22.00" routeLength="241.37" waitSteps="0" rerouteNo="0" devices="tripinfo_219187_219187_446 hbefa_219187_219187_446" vType="DEFAULT_VEHTYPE" vaporized="">
        <emissions CO_abs="491.505966" CO2_abs="47588.293172" HC_abs="13.627882" PMx_abs="4.809214" NOx_abs="94.928126" fuel_abs="18.972726"/>
    </tripinfo>
    <tripinfo id="206737_206737_440" depart="27007.00" departLane="-29206900_0" departPos="5.10" departSpeed="0.00" departDelay="0.00" arrival="27023.00" arrivalLane="29207110_0" arrivalPos="28.94" arrivalSpeed="11.65" duration="16.00" routeLength="103.46" waitSteps="0" rerouteNo="0" devices="tripinfo_206737_206737_440 hbefa_206737_206737_440" vType="DEFAULT_VEHTYPE" vaporized="">
        <emissions CO_abs="422.530809" CO2_abs="35900.067962" HC_abs="11.479313" PMx_abs="3.772605" NOx_abs="72.147686" fuel_abs="14.312801"/>
    </tripinfo>
    <tripinfo id="110327_110327_401" depart="27000.00" departLane="53212166#0_0" departPos="5.10" departSpeed="0.00" departDelay="0.00" arrival="27024.00" arrivalLane="28542995#2_2" arrivalPos="61.74" arrivalSpeed="13.83" duration="24.00" routeLength="231.82" waitSteps="0" rerouteNo="0" devices="tripinfo_110327_110327_401 hbefa_110327_110327_401" vType="DEFAULT_VEHTYPE" vaporized="">
        <emissions CO_abs="563.542748" CO2_abs="56192.018484" HC_abs="15.972618" PMx_abs="5.659958" NOx_abs="111.593746" fuel_abs="22.402899"/>
    </tripinfo>
    <tripinfo id="225541_225541_450" depart="27000.00" departLane="9207803_0" departPos="5.10" departSpeed="0.00" departDelay="0.00" arrival="27024.00" arrivalLane="154755073#3_0" arrivalPos="102.52" arrivalSpeed="8.32" duration="24.00" routeLength="166.65" waitSteps="0" rerouteNo="0" devices="tripinfo_225541_225541_450 hbefa_225541_225541_450" vType="DEFAULT_VEHTYPE" vaporized="">
        <emissions CO_abs="270.599000" CO2_abs="34035.503941" HC_abs="9.883879" PMx_abs="2.886151" NOx_abs="63.270189" fuel_abs="13.569429"/>
    </tripinfo>
    <tripinfo id="148867_148867_417" depart="27006.00" departLane="3065455_0" departPos="5.10" departSpeed="0.00" departDelay="6.00" arrival="27024.00" arrivalLane="23800191#0_0" arrivalPos="143.94" arrivalSpeed="13.25" duration="18.00" routeLength="194.49" waitSteps="0" rerouteNo="0" devices="tripinfo_148867_148867_417 hbefa_148867_148867_417" vType="DEFAULT_VEHTYPE" vaporized="">
        <emissions CO_abs="507.879328" CO2_abs="48482.526750" HC_abs="13.872564" PMx_abs="5.047000" NOx_abs="97.287296" fuel_abs="19.329243"/>
    </tripinfo>
    <tripinfo id="141415_141415_415" depart="27003.00" departLane="150039002#2_0" departPos="5.10" departSpeed="0.00" departDelay="3.00" arrival="27025.00" arrivalLane="150039002#2_0" arrivalPos="249.40" arrivalSpeed="13.62" duration="22.00" routeLength="244.30" waitSteps="0" rerouteNo="0" devices="tripinfo_141415_141415_415 hbefa_141415_141415_415" vType="DEFAULT_VEHTYPE" vaporized="">
        <emissions CO_abs="551.265910" CO2_abs="48761.711080" HC_abs="14.394537" PMx_abs="5.121843" NOx_abs="98.973793" fuel_abs="19.440548"/>
    </tripinfo>
    <tripinfo id="136596_136596_411" depart="27003.00" departLane="131651824_0" departPos="5.10" departSpeed="0.00" departDelay="3.00" arrival="27026.00" arrivalLane="4400211#0_0" arrivalPos="197.56" arrivalSpeed="12.40" duration="23.00" routeLength="253.49" waitSteps="0" rerouteNo="0" devices="tripinfo_136596_136596_411 hbefa_136596_136596_411" vType="DEFAULT_VEHTYPE" vaporized="">
        <emissions CO_abs="541.634080" CO2_abs="51125.813798" HC_abs="14.857833" PMx_abs="5.243849" NOx_abs="102.414844" fuel_abs="20.383080"/>
    </tripinfo>
    <tripinfo id="220353_220353_447" depart="27001.00" departLane="-165515969#3_0" departPos="5.10" departSpeed="0.00" departDelay="0.00" arrival="27027.00" arrivalLane="-165511531#0_0" arrivalPos="53.73" arrivalSpeed="12.93" duration="26.00" routeLength="345.81" waitSteps="0" rerouteNo="1" devices="tripinfo_220353_220353_447 hbefa_220353_220353_447" vType="DEFAULT_VEHTYPE" vaporized="">
        <emissions CO_abs="2386.849745" CO2_abs="139912.786347" HC_abs="47.497730" PMx_abs="18.639996" NOx_abs="313.608501" fuel_abs="55.781111"/>
    </tripinfo>
    <tripinfo id="134089_134089_411" depart="27000.00" departLane="23800191#2_0" departPos="5.10" departSpeed="0.00" departDelay="0.00" arrival="27028.00" arrivalLane="4400211#0_0" arrivalPos="197.56" arrivalSpeed="12.93" duration="28.00" routeLength="291.90" waitSteps="0" rerouteNo="0" devices="tripinfo_134089_134089_411 hbefa_134089_134089_411" vType="DEFAULT_VEHTYPE" vaporized="">
        <emissions CO_abs="742.217391" CO2_abs="68120.386541" HC_abs="19.958400" PMx_abs="6.981378" NOx_abs="137.063152" fuel_abs="27.158555"/>
    </tripinfo>
    <tripinfo id="84113_84113_390" depart="27000.00" departLane="150031205#0_0" departPos="5.10" departSpeed="0.00" departDelay="0.00" arrival="27029.00" arrivalLane="23471158#10_0" arrivalPos="144.68" arrivalSpeed="27.78" duration="29.00" routeLength="462.65" waitSteps="2" rerouteNo="0" devices="tripinfo_84113_84113_390 hbefa_84113_84113_390" vType="DEFAULT_VEHTYPE" vaporized="">
        <emissions CO_abs="3192.593848" CO2_abs="186017.567944" HC_abs="61.996123" PMx_abs="23.121852" NOx_abs="414.141849" fuel_abs="74.162467"/>
    </tripinfo>
    <tripinfo id="118681_118681_405" depart="27000.00" departLane="23471158#6_0" departPos="5.10" departSpeed="0.00" departDelay="0.00" arrival="27030.00" arrivalLane="32856811#2_0" arrivalPos="144.91" arrivalSpeed="13.77" duration="30.00" routeLength="453.34" waitSteps="0" rerouteNo="0" devices="tripinfo_118681_118681_405 hbefa_118681_118681_405" vType="DEFAULT_VEHTYPE" vaporized="">
        <emissions CO_abs="2003.970239" CO2_abs="131120.844046" HC_abs="41.825327" PMx_abs="15.577258" NOx_abs="284.609458" fuel_abs="52.275921"/>
    </tripinfo>
    <tripinfo id="188835_188835_434" depart="27006.00" departLane="187965762#1_0" departPos="5.10" departSpeed="0.00" departDelay="6.00" arrival="27030.00" arrivalLane="187965762#2_0" arrivalPos="85.18" arrivalSpeed="8.14" duration="24.00" routeLength="168.92" waitSteps="0" rerouteNo="0" devices="tripinfo_188835_188835_434 hbefa_188835_188835_434" vType="DEFAULT_VEHTYPE" vaporized="">
        <emissions CO_abs="203.536197" CO2_abs="32651.609232" HC_abs="8.982937" PMx_abs="2.519090" NOx_abs="58.551466" fuel_abs="13.017692"/>
    </tripinfo>
    <tripinfo id="187318_187318_433" depart="27013.00" departLane="-83823403#2_0" departPos="5.10" departSpeed="0.00" departDelay="0.00" arrival="27030.00" arrivalLane="-83823403#2_0" arrivalPos="184.87" arrivalSpeed="12.84" duration="17.00" routeLength="179.77" waitSteps="0" rerouteNo="0" devices="tripinfo_187318_187318_433 hbefa_187318_187318_433" vType="DEFAULT_VEHTYPE" vaporized="">
        <emissions CO_abs="452.244677" CO2_abs="41965.081544" HC_abs="12.325099" PMx_abs="4.199379" NOx_abs="83.992406" fuel_abs="16.730835"/>
    </tripinfo>
    <tripinfo id="103637_103637_397" depart="27000.00" departLane="145474196#1_0" departPos="5.10" departSpeed="0.00" departDelay="0.00" arrival="27031.00" arrivalLane="150039002#2_1" arrivalPos="249.40" arrivalSpeed="13.53" duration="31.00" routeLength="361.28" waitSteps="0" rerouteNo="0" devices="tripinfo_103637_103637_397 hbefa_103637_103637_397" vType="DEFAULT_VEHTYPE" vaporized="">
        <emissions CO_abs="717.719040" CO2_abs="70608.465656" HC_abs="19.930995" PMx_abs="7.034590" NOx_abs="140.682877" fuel_abs="28.150518"/>
    </tripinfo>
    <tripinfo id="212444_212444_443" depart="27003.00" departLane="166155712#0_0" departPos="5.10" departSpeed="0.00" departDelay="0.00" arrival="27031.00" arrivalLane="33469672_0" arrivalPos="142.78" arrivalSpeed="13.86" duration="28.00" routeLength="317.06" waitSteps="0" rerouteNo="0" devices="tripinfo_212444_212444_443 hbefa_212444_212444_443" vType="DEFAULT_VEHTYPE" vaporized="">
        <emissions CO_abs="928.425238" CO2_abs="73798.095948" HC_abs="22.453436" PMx_abs="8.461451" NOx_abs="154.014709" fuel_abs="29.422169"/>
    </tripinfo>
    <tripinfo id="122617_122617_406" depart="27000.00" departLane="131651824_0" departPos="5.10" departSpeed="0.00" departDelay="0.00" arrival="27031.00" arrivalLane="130875842_0" arrivalPos="81.21" arrivalSpeed="13.74" duration="31.00" routeLength="334.70" waitSteps="0" rerouteNo="0" devices="tripinfo_122617_122617_406 hbefa_122617_122617_406" vType="DEFAULT_VEHTYPE" vaporized="">
        <emissions CO_abs="924.856409" CO2_abs="78685.028655" HC_abs="23.551255" PMx_abs="8.467449" NOx_abs="161.094109" fuel_abs="31.370515"/>
    </tripinfo>
    <tripinfo id="104726_104726_398" depart="27000.00" departLane="23471158#5_0" departPos="5.10" departSpeed="0.00" departDelay="0.00" arrival="27032.00" arrivalLane="32856811#2_0" arrivalPos="144.91" arrivalSpeed="13.69" duration="32.00" routeLength="464.21" waitSteps="0" rerouteNo="0" devices="tripinfo_104726_104726_398 hbefa_104726_104726_398" vType="DEFAULT_VEHTYPE" vaporized="">
        <emissions CO_abs="1914.594954" CO2_abs="127771.798022" HC_abs="40.871513" PMx_abs="15.091778" NOx_abs="275.781518" fuel_abs="50.940693"/>
    </tripinfo>
    <tripinfo id="208001_208001_441" depart="27001.00" departLane="-83823403#2_0" departPos="5.10" departSpeed="0.00" departDelay="0.00" arrival="27034.00" arrivalLane="23015529#0_0" arrivalPos="184.87" arrivalSpeed="13.17" duration="33.00" routeLength="364.64" waitSteps="0" rerouteNo="0" devices="tripinfo_208001_208001_441 hbefa_208001_208001_441" vType="DEFAULT_VEHTYPE" vaporized="">
        <emissions CO_abs="961.780882" CO2_abs="85318.187749" HC_abs="24.927873" PMx_abs="9.113125" NOx_abs="173.810887" fuel_abs="34.015057"/>
    </tripinfo>
    <tripinfo id="217202_217202_446" depart="27007.00" departLane="-83823403#2_0" departPos="5.10" departSpeed="0.00" departDelay="0.00" arrival="27034.00" arrivalLane="23015533_0" arrivalPos="110.79" arrivalSpeed="12.86" duration="27.00" routeLength="290.56" waitSteps="0" rerouteNo="0" devices="tripinfo_217202_217202_446 hbefa_217202_217202_446" vType="DEFAULT_VEHTYPE" vaporized="">
        <emissions CO_abs="880.543799" CO2_abs="72488.491181" HC_abs="21.860568" PMx_abs="8.212117" NOx_abs="150.071124" fuel_abs="28.900050"/>
    </tripinfo>
    <tripinfo id="146563_146563_416" depart="27006.00" departLane="129833340#2_0" departPos="5.10" departSpeed="0.00" departDelay="6.00" arrival="27035.00" arrivalLane="154755096_0" arrivalPos="66.91" arrivalSpeed="13.19" duration="29.00" routeLength="417.33" waitSteps="0" rerouteNo="0" devices="tripinfo_146563_146563_416 hbefa_146563_146563_416" vType="DEFAULT_VEHTYPE" vaporized="">
        <emissions CO_abs="2231.670747" CO2_abs="139486.544684" HC_abs="45.722530" PMx_abs="17.270215" NOx_abs="306.416764" fuel_abs="55.611189"/>
    </tripinfo>
    <tripinfo id="103310_103310_397" depart="27000.00" departLane="83703645_0" departPos="5.10" departSpeed="0.00" departDelay="0.00" arrival="27035.00" arrivalLane="23493177#0_0" arrivalPos="166.52" arrivalSpeed="8.25" duration="35.00" routeLength="279.85" waitSteps="0" rerouteNo="0" devices="tripinfo_103310_103310_397 hbefa_103310_103310_397" vType="DEFAULT_VEHTYPE" vaporized="">
        <emissions CO_abs="510.080870" CO2_abs="57271.506930" HC_abs="16.561658" PMx_abs="5.287902" NOx_abs="109.619750" fuel_abs="22.833266"/>
    </tripinfo>
    <tripinfo id="144652_144652_416" depart="27000.00" departLane="3065455_0" departPos="5.10" departSpeed="0.00" departDelay="0.00" arrival="27037.00" arrivalLane="130659365_0" arrivalPos="223.21" arrivalSpeed="4.99" duration="37.00" routeLength="365.42" waitSteps="0" rerouteNo="0" devices="tripinfo_144652_144652_416 hbefa_144652_144652_416" vType="DEFAULT_VEHTYPE" vaporized="">
        <emissions CO_abs="679.966978" CO2_abs="64902.512450" HC_abs="19.062482" PMx_abs="6.430606" NOx_abs="128.880339" fuel_abs="25.875636"/>
    </tripinfo>
    <tripinfo id="238887_238887_451" depart="27010.00" departLane="-83823403#2_0" departPos="5.10" departSpeed="0.00" departDelay="0.00" arrival="27037.00" arrivalLane="23015533_0" arrivalPos="110.79" arrivalSpeed="13.10" duration="27.00" routeLength="290.56" waitSteps="0" rerouteNo="0" devices="tripinfo_238887_238887_451 hbefa_238887_238887_451" vType="DEFAULT_VEHTYPE" vaporized="">
        <emissions CO_abs="842.897819" CO2_abs="66881.146983" HC_abs="20.532347" PMx_abs="7.636320" NOx_abs="139.283191" fuel_abs="26.664486"/>
    </tripinfo>
    <tripinfo id="154499_154499_420" depart="27000.00" departLane="28542995#0_0" departPos="5.10" departSpeed="0.00" departDelay="0.00" arrival="27038.00" arrivalLane="23493260#4_1" arrivalPos="126.60" arrivalSpeed="12.62" duration="38.00" routeLength="435.19" waitSteps="0" rerouteNo="0" devices="tripinfo_154499_154499_420 hbefa_154499_154499_420" vType="DEFAULT_VEHTYPE" vaporized="">
        <emissions CO_abs="1119.348580" CO2_abs="94312.753620" HC_abs="28.118021" PMx_abs="10.546285" NOx_abs="194.286175" fuel_abs="37.601051"/>
    </tripinfo>
    <tripinfo id="123467_123467_406" depart="27008.00" departLane="23471158#6_0" departPos="5.10" departSpeed="0.00" departDelay="8.00" arrival="27038.00" arrivalLane="32856811#2_0" arrivalPos="144.91" arrivalSpeed="13.40" duration="30.00" routeLength="453.34" waitSteps="0" rerouteNo="0" devices="tripinfo_123467_123467_406 hbefa_123467_123467_406" vType="DEFAULT_VEHTYPE" vaporized="">
        <emissions CO_abs="2241.268432" CO2_abs="138845.103973" HC_abs="45.442398" PMx_abs="17.439381" NOx_abs="306.347724" fuel_abs="55.355460"/>
    </tripinfo>
    <tripinfo id="138122_138122_412" depart="27009.00" departLane="131651824_0" departPos="5.10" departSpeed="0.00" departDelay="9.00" arrival="27038.00" arrivalLane="130875842_0" arrivalPos="81.21" arrivalSpeed="13.54" duration="29.00" routeLength="334.70" waitSteps="0" rerouteNo="0" devices="tripinfo_138122_138122_412 hbefa_138122_138122_412" vType="DEFAULT_VEHTYPE" vaporized="">
        <emissions CO_abs="822.686202" CO2_abs="71276.197067" HC_abs="20.998902" PMx_abs="7.682858" NOx_abs="145.787164" fuel_abs="28.416729"/>
    </tripinfo>
    <tripinfo id="218769_218769_446" depart="27003.00" departLane="-55940134_0" departPos="5.10" departSpeed="0.00" departDelay="3.00" arrival="27040.00" arrivalLane="-144935692#1_1" arrivalPos="103.61" arrivalSpeed="12.62" duration="37.00" routeLength="447.77" waitSteps="0" rerouteNo="1" devices="tripinfo_218769_218769_446 hbefa_218769_218769_446" vType="DEFAULT_VEHTYPE" vaporized="">
        <emissions CO_abs="719.190178" CO2_abs="72421.598418" HC_abs="20.131584" PMx_abs="7.029817" NOx_abs="143.815037" fuel_abs="28.873389"/>
    </tripinfo>
    <tripinfo id="171544_171544_426" depart="27000.00" departLane="187965762#1_0" departPos="5.10" departSpeed="0.00" departDelay="0.00" arrival="27040.00" arrivalLane="23800191#0_0" arrivalPos="143.94" arrivalSpeed="13.27" duration="40.00" routeLength="368.51" waitSteps="0" rerouteNo="0" devices="tripinfo_171544_171544_426 hbefa_171544_171544_426" vType="DEFAULT_VEHTYPE" vaporized="">
        <emissions CO_abs="692.118638" CO2_abs="73151.450169" HC_abs="20.897800" PMx_abs="7.069808" NOx_abs="142.661662" fuel_abs="29.164360"/>
    </tripinfo>
    <tripinfo id="244420_244420_453" depart="27015.00" departLane="-165515969#3_0" departPos="5.10" departSpeed="0.00" departDelay="0.00" arrival="27041.00" arrivalLane="-165511531#0_0" arrivalPos="53.73" arrivalSpeed="13.26" duration="26.00" routeLength="345.81" waitSteps="0" rerouteNo="1" devices="tripinfo_244420_244420_453 hbefa_244420_244420_453" vType="DEFAULT_VEHTYPE" vaporized="">
        <emissions CO_abs="2096.172489" CO2_abs="130667.617686" HC_abs="43.099360" PMx_abs="16.433575" NOx_abs="287.587580" fuel_abs="52.095207"/>
    </tripinfo>
    <tripinfo id="184987_184987_431" depart="27000.00" departLane="-186463490#0_0" departPos="5.10" departSpeed="0.00" departDelay="0.00" arrival="27042.00" arrivalLane="-144935692#1_1" arrivalPos="103.61" arrivalSpeed="13.26" duration="42.00" routeLength="500.46" waitSteps="0" rerouteNo="0" devices="tripinfo_184987_184987_431 hbefa_184987_184987_431" vType="DEFAULT_VEHTYPE" vaporized="">
        <emissions CO_abs="852.242488" CO2_abs="90011.052375" HC_abs="24.528517" PMx_abs="8.727511" NOx_abs="177.643730" fuel_abs="35.886038"/>
    </tripinfo>
    <tripinfo id="197472_197472_436" depart="27006.00" departLane="23800191#2_0" departPos="5.10" departSpeed="0.00" departDelay="6.00" arrival="27042.00" arrivalLane="130875842_0" arrivalPos="81.21" arrivalSpeed="13.55" duration="36.00" routeLength="373.11" waitSteps="0" rerouteNo="0" devices="tripinfo_197472_197472_436 hbefa_197472_197472_436" vType="DEFAULT_VEHTYPE" vaporized="">
        <emissions CO_abs="1091.567371" CO2_abs="91777.486251" HC_abs="27.570711" PMx_abs="9.994400" NOx_abs="188.497966" fuel_abs="36.590276"/>
    </tripinfo>
    <tripinfo id="212327_212327_442" depart="27014.00" departLane="198147972_0" departPos="5.10" departSpeed="0.00" departDelay="0.00" arrival="27042.00" arrivalLane="4353628#1_0" arrivalPos="68.95" arrivalSpeed="13.33" duration="28.00" routeLength="339.08" waitSteps="0" rerouteNo="1" devices="tripinfo_212327_212327_442 hbefa_212327_212327_442" vType="DEFAULT_VEHTYPE" vaporized="">
        <emissions CO_abs="666.173774" CO2_abs="63356.602298" HC_abs="17.917983" PMx_abs="6.559136" NOx_abs="127.615527" fuel_abs="25.259312"/>
    </tripinfo>
    <tripinfo id="101376_101376_396" depart="27003.00" departLane="23471158#0_0" departPos="5.10" departSpeed="0.00" departDelay="3.00" arrival="27043.00" arrivalLane="32856811#2_0" arrivalPos="144.91" arrivalSpeed="13.56" duration="40.00" routeLength="664.02" waitSteps="0" rerouteNo="0" devices="tripinfo_101376_101376_396 hbefa_101376_101376_396" vType="DEFAULT_VEHTYPE" vaporized="">
        <emissions CO_abs="3074.378643" CO2_abs="192087.555532" HC_abs="62.199813" PMx_abs="24.071736" NOx_abs="423.698843" fuel_abs="76.582433"/>
    </tripinfo>
    <tripinfo id="109818_109818_401" depart="27000.00" departLane="150031203_0" departPos="5.10" departSpeed="0.00" departDelay="0.00" arrival="27043.00" arrivalLane="150039002#2_1" arrivalPos="249.40" arrivalSpeed="13.33" duration="43.00" routeLength="473.28" waitSteps="0" rerouteNo="0" devices="tripinfo_109818_109818_401 hbefa_109818_109818_401" vType="DEFAULT_VEHTYPE" vaporized="">
        <emissions CO_abs="1301.218739" CO2_abs="102731.167785" HC_abs="31.593365" PMx_abs="11.604648" NOx_abs="213.898430" fuel_abs="40.957338"/>
    </tripinfo>
    <tripinfo id="245947_245947_454" depart="27016.00" departLane="-83823403#2_0" departPos="5.10" departSpeed="0.00" departDelay="0.00" arrival="27043.00" arrivalLane="23015533_0" arrivalPos="110.79" arrivalSpeed="13.24" duration="27.00" routeLength="290.56" waitSteps="0" rerouteNo="0" devices="tripinfo_245947_245947_454 hbefa_245947_245947_454" vType="DEFAULT_VEHTYPE" vaporized="">
        <emissions CO_abs="854.519189" CO2_abs="74176.038131" HC_abs="22.007324" PMx_abs="7.894953" NOx_abs="151.305306" fuel_abs="29.572849"/>
    </tripinfo>
    <tripinfo id="211099_211099_442" depart="27013.00" departLane="166155712#0_0" departPos="5.10" departSpeed="0.00" departDelay="0.00" arrival="27043.00" arrivalLane="33469672_0" arrivalPos="142.78" arrivalSpeed="13.74" duration="30.00" routeLength="317.06" waitSteps="0" rerouteNo="0" devices="tripinfo_211099_211099_442 hbefa_211099_211099_442" vType="DEFAULT_VEHTYPE" vaporized="">
        <emissions CO_abs="850.827283" CO2_abs="73195.670608" HC_abs="21.903631" PMx_abs="7.772875" NOx_abs="149.280887" fuel_abs="29.181991"/>
    </tripinfo>
    <tripinfo id="224931_224931_449" depart="27026.00" departLane="-28523795_0" departPos="5.10" departSpeed="0.00" departDelay="0.00" arrival="27044.00" arrivalLane="-28523795_0" arrivalPos="192.02" arrivalSpeed="12.89" duration="18.00" routeLength="186.92" waitSteps="0" rerouteNo="0" devices="tripinfo_224931_224931_449 hbefa_224931_224931_449" vType="DEFAULT_VEHTYPE" vaporized="">
        <emissions CO_abs="535.435872" CO2_abs="44923.447660" HC_abs="13.612527" PMx_abs="4.958883" NOx_abs="92.211583" fuel_abs="17.910289"/>
    </tripinfo>
    <tripinfo id="192246_192246_435" depart="27018.00" departLane="2511537#2_0" departPos="5.10" departSpeed="0.00" departDelay="18.00" arrival="27044.00" arrivalLane="2511537#2_0" arrivalPos="191.15" arrivalSpeed="8.08" duration="26.00" routeLength="186.05" waitSteps="0" rerouteNo="1" devices="tripinfo_192246_192246_435 hbefa_192246_192246_435" vType="DEFAULT_VEHTYPE" vaporized="">
        <emissions CO_abs="223.746837" CO2_abs="33728.862318" HC_abs="9.369524" PMx_abs="2.746066" NOx_abs="61.305730" fuel_abs="13.447176"/>
    </tripinfo>
    <tripinfo id="101794_101794_396" depart="27002.00" departLane="36454807#3-AddedOnRampEdge_0" departPos="5.10" departSpeed="0.00" departDelay="2.00" arrival="27044.00" arrivalLane="2832027#0_0" arrivalPos="102.82" arrivalSpeed="7.90" duration="42.00" routeLength="401.28" waitSteps="0" rerouteNo="2" devices="tripinfo_101794_101794_396 hbefa_101794_101794_396" vType="DEFAULT_VEHTYPE" vaporized="">
        <emissions CO_abs="1280.725758" CO2_abs="97105.027853" HC_abs="30.526654" PMx_abs="11.130697" NOx_abs="203.348034" fuel_abs="38.714286"/>
    </tripinfo>
    <tripinfo id="101939_101939_396" depart="27006.00" departLane="23471158#0_0" departPos="5.10" departSpeed="0.00" departDelay="6.00" arrival="27045.00" arrivalLane="32856811#2_0" arrivalPos="144.91" arrivalSpeed="13.46" duration="39.00" routeLength="664.02" waitSteps="0" rerouteNo="0" devices="tripinfo_101939_101939_396 hbefa_101939_101939_396" vType="DEFAULT_VEHTYPE" vaporized="">
        <emissions CO_abs="2778.263885" CO2_abs="181273.174572" HC_abs="56.882786" PMx_abs="21.596956" NOx_abs="394.611369" fuel_abs="72.270935"/>
    </tripinfo>
    <tripinfo id="227630_227630_450" depart="27017.00" departLane="166155712#0_0" departPos="5.10" departSpeed="0.00" departDelay="0.00" arrival="27045.00" arrivalLane="33469672_0" arrivalPos="142.78" arrivalSpeed="12.71" duration="28.00" routeLength="317.06" waitSteps="0" rerouteNo="1" devices="tripinfo_227630_227630_450 hbefa_227630_227630_450" vType="DEFAULT_VEHTYPE" vaporized="">
        <emissions CO_abs="884.113981" CO2_abs="71719.226429" HC_abs="21.634797" PMx_abs="8.112841" NOx_abs="148.938388" fuel_abs="28.593357"/>
    </tripinfo>
    <tripinfo id="101768_101768_396" depart="27000.00" departLane="23493181#0_0" departPos="5.10" departSpeed="0.00" departDelay="0.00" arrival="27046.00" arrivalLane="122989592#2_1" arrivalPos="74.34" arrivalSpeed="8.21" duration="46.00" routeLength="323.96" waitSteps="0" rerouteNo="1" devices="tripinfo_101768_101768_396 hbefa_101768_101768_396" vType="DEFAULT_VEHTYPE" vaporized="">