<?xml version="1.0" encoding="UTF-8"?>

<!-- generated on Fri Mar 14 11:10:51 2014 by SUMO sumo Version dev-SVN-r15641
<?xml version="1.0" encoding="UTF-8"?>

<configuration xmlns:xsi="http://www.w3.org/2001/XMLSchema-instance" xsi:noNamespaceSchemaLocation="http://sumo-sim.org/xsd/sumoConfiguration.xsd">

    <input>
        <net-file value="data/map.net.xml"/>
        <route-files value="data/map.rou.xml"/>
    </input>

    <output>
        <tripinfo-output value="data/maptripinfo.out.xml"/>
        <save-state.prefix value="data/state"/>
    </output>

    <time>
        <begin value="27000"/>
        <end value="27900"/>
    </time>

    <processing>
        <route-steps value="200"/>
        <scale value="0.8"/>
        <time-to-teleport value="300"/>
        <lanechange.allow-swap value="true"/>
    </processing>

    <report>
        <verbose value="true"/>
        <no-warnings value="false"/>
        <no-step-log value="true"/>
    </report>

    <emissions>
        <device.hbefa.probability value="1"/>
    </emissions>

    <traci_server>
        <remote-port value="8814"/>
    </traci_server>

</configuration>
-->

<tripinfos>
    <tripinfo id="136022_136022_411" depart="27003.00" departLane="23800191#2_0" departPos="5.10" departSpeed="0.00" departDelay="3.00" arrival="27009.00" arrivalLane="23800191#2_0" arrivalPos="38.41" arrivalSpeed="9.92" duration="6.00" routeLength="33.31" waitSteps="0" rerouteNo="0" devices="tripinfo_136022_136022_411 hbefa_136022_136022_411" vType="DEFAULT_VEHTYPE" vaporized="">
        <emissions CO_abs="223.331584" CO2_abs="17809.323067" HC_abs="5.914012" PMx_abs="1.889590" NOx_abs="36.034792" fuel_abs="7.100300"/>
    </tripinfo>
    <tripinfo id="182087_182087_431" depart="27000.00" departLane="4380937#2_0" departPos="5.10" departSpeed="0.00" departDelay="0.00" arrival="27011.00" arrivalLane="4380937#3_0" arrivalPos="72.76" arrivalSpeed="13.62" duration="11.00" routeLength="103.50" waitSteps="0" rerouteNo="1" devices="tripinfo_182087_182087_431 hbefa_182087_182087_431" vType="DEFAULT_VEHTYPE" vaporized="">
        <emissions CO_abs="507.341604" CO2_abs="37691.968185" HC_abs="12.011211" PMx_abs="4.470021" NOx_abs="79.431641" fuel_abs="15.027207"/>
    </tripinfo>
    <tripinfo id="72912_72912_384" depart="27003.00" departLane="9207803_0" departPos="5.10" departSpeed="0.00" departDelay="3.00" arrival="27013.00" arrivalLane="9207803_0" arrivalPos="69.23" arrivalSpeed="7.42" duration="10.00" routeLength="64.13" waitSteps="0" rerouteNo="0" devices="tripinfo_72912_72912_384 hbefa_72912_72912_384" vType="DEFAULT_VEHTYPE" vaporized="">
        <emissions CO_abs="177.479210" CO2_abs="17021.051303" HC_abs="5.342038" PMx_abs="1.725595" NOx_abs="33.187816" fuel_abs="6.786029"/>
    </tripinfo>
    <tripinfo id="92380_92380_392" depart="27000.00" departLane="-154755073#3_0" departPos="5.10" departSpeed="0.00" departDelay="0.00" arrival="27015.00" arrivalLane="-154755073#3_0" arrivalPos="102.52" arrivalSpeed="8.15" duration="15.00" routeLength="97.42" waitSteps="0" rerouteNo="0" devices="tripinfo_92380_92380_392 hbefa_92380_92380_392" vType="DEFAULT_VEHTYPE" vaporized="">
        <emissions CO_abs="244.120677" CO2_abs="23090.173201" HC_abs="7.227085" PMx_abs="2.384518" NOx_abs="45.411485" fuel_abs="9.205694"/>
    </tripinfo>
    <tripinfo id="251564_251564_457" depart="27002.00" departLane="51113317_0" departPos="5.10" departSpeed="0.00" departDelay="0.00" arrival="27015.00" arrivalLane="51113317_0" arrivalPos="125.08" arrivalSpeed="12.89" duration="13.00" routeLength="119.98" waitSteps="0" rerouteNo="0" devices="tripinfo_251564_251564_457 hbefa_251564_251564_457" vType="DEFAULT_VEHTYPE" vaporized="">
        <emissions CO_abs="453.160091" CO2_abs="39185.517636" HC_abs="11.790040" PMx_abs="4.230191" NOx_abs="79.757670" fuel_abs="15.622665"/>
    </tripinfo>
    <tripinfo id="84049_84049_390" depart="27006.00" departLane="9207803_0" departPos="5.10" departSpeed="0.00" departDelay="6.00" arrival="27017.00" arrivalLane="9207803_0" arrivalPos="69.23" arrivalSpeed="7.53" duration="11.00" routeLength="64.13" waitSteps="0" rerouteNo="0" devices="tripinfo_84049_84049_390 hbefa_84049_84049_390" vType="DEFAULT_VEHTYPE" vaporized="">
        <emissions CO_abs="179.774489" CO2_abs="18489.578876" HC_abs="5.759825" PMx_abs="1.718465" NOx_abs="35.318619" fuel_abs="7.371508"/>
    </tripinfo>
    <tripinfo id="232041_232041_451" depart="27002.00" departLane="28523795_0" departPos="5.10" departSpeed="0.00" departDelay="0.00" arrival="27019.00" arrivalLane="28523795_0" arrivalPos="192.02" arrivalSpeed="13.71" duration="17.00" routeLength="186.92" waitSteps="0" rerouteNo="0" devices="tripinfo_232041_232041_451 hbefa_232041_232041_451" vType="DEFAULT_VEHTYPE" vaporized="">
        <emissions CO_abs="505.682951" CO2_abs="42564.123217" HC_abs="12.831542" PMx_abs="4.642102" NOx_abs="87.322632" fuel_abs="16.969663"/>
    </tripinfo>
    <tripinfo id="105435_105435_398" depart="27003.00" departLane="145474196#1_0" departPos="5.10" departSpeed="0.00" departDelay="3.00" arrival="27021.00" arrivalLane="145474196#1_0" arrivalPos="94.12" arrivalSpeed="5.28" duration="18.00" routeLength="89.02" waitSteps="4" rerouteNo="0" devices="tripinfo_105435_105435_398 hbefa_105435_105435_398" vType="DEFAULT_VEHTYPE" vaporized="">
        <emissions CO_abs="594.708634" CO2_abs="36887.159156" HC_abs="13.123925" PMx_abs="4.976780" NOx_abs="80.705024" fuel_abs="14.706337"/>
    </tripinfo>
    <tripinfo id="135880_135880_411" depart="27000.00" departLane="150039002#2_0" departPos="5.10" departSpeed="0.00" departDelay="0.00" arrival="27022.00" arrivalLane="150039002#2_0" arrivalPos="249.40" arrivalSpeed="12.94" duration="22.00" routeLength="244.30" waitSteps="0" rerouteNo="0" devices="tripinfo_135880_135880_411 hbefa_135880_135880_411" vType="DEFAULT_VEHTYPE" vaporized="">
        <emissions CO_abs="504.346894" CO2_abs="48665.262632" HC_abs="14.009144" PMx_abs="4.779776" NOx_abs="96.852205" fuel_abs="19.402096"/>
    </tripinfo>
    <tripinfo id="140107_140107_414" depart="27000.00" departLane="154755117_0" departPos="5.10" departSpeed="0.00" departDelay="0.00" arrival="27022.00" arrivalLane="23800191#0_0" arrivalPos="143.94" arrivalSpeed="12.87" duration="22.00" routeLength="212.88" waitSteps="0" rerouteNo="1" devices="tripinfo_140107_140107_414 hbefa_140107_140107_414" vType="DEFAULT_VEHTYPE" vaporized="">
        <emissions CO_abs="482.533088" CO2_abs="44785.863791" HC_abs="13.342530" PMx_abs="4.677486" NOx_abs="89.680960" fuel_abs="17.855435"/>
    </tripinfo>
    <tripinfo id="219187_219187_446" depart="27000.00" departLane="144935690_0" departPos="5.10" departSpeed="0.00" departDelay="0.00" arrival="27022.00" arrivalLane="25997632_0" arrivalPos="136.14" arrivalSpeed="13.07" duration="22.00" routeLength="241.37" waitSteps="0" rerouteNo="2" devices="tripinfo_219187_219187_446 hbefa_219187_219187_446" vType="DEFAULT_VEHTYPE" vaporized="">
        <emissions CO_abs="627.311052" CO2_abs="53884.463403" HC_abs="16.027175" PMx_abs="5.832358" NOx_abs="110.266878" fuel_abs="21.482911"/>
    </tripinfo>
    <tripinfo id="206737_206737_440" depart="27007.00" departLane="-29206900_0" departPos="5.10" departSpeed="0.00" departDelay="0.00" arrival="27022.00" arrivalLane="29207110_0" arrivalPos="28.94" arrivalSpeed="13.67" duration="15.00" routeLength="103.46" waitSteps="0" rerouteNo="1" devices="tripinfo_206737_206737_440 hbefa_206737_206737_440" vType="DEFAULT_VEHTYPE" vaporized="">
        <emissions CO_abs="561.635357" CO2_abs="41813.176404" HC_abs="13.604598" PMx_abs="4.936466" NOx_abs="87.578520" fuel_abs="16.670266"/>
    </tripinfo>
    <tripinfo id="110327_110327_401" depart="27000.00" departLane="53212166#0_0" departPos="5.10" departSpeed="0.00" departDelay="0.00" arrival="27023.00" arrivalLane="28542995#2_2" arrivalPos="61.74" arrivalSpeed="12.83" duration="23.00" routeLength="231.82" waitSteps="0" rerouteNo="3" devices="tripinfo_110327_110327_401 hbefa_110327_110327_401" vType="DEFAULT_VEHTYPE" vaporized="">
        <emissions CO_abs="491.323170" CO2_abs="47932.294173" HC_abs="13.894820" PMx_abs="4.824445" NOx_abs="95.073962" fuel_abs="19.109870"/>
    </tripinfo>
    <tripinfo id="225242_225242_449" depart="27000.00" departLane="154755124_0" departPos="5.10" departSpeed="0.00" departDelay="0.00" arrival="27024.00" arrivalLane="4380937#3_1" arrivalPos="72.76" arrivalSpeed="12.90" duration="24.00" routeLength="189.24" waitSteps="0" rerouteNo="2" devices="tripinfo_225242_225242_449 hbefa_225242_225242_449" vType="DEFAULT_VEHTYPE" vaporized="">
        <emissions CO_abs="732.587446" CO2_abs="56189.715205" HC_abs="18.129917" PMx_abs="6.657833" NOx_abs="117.026091" fuel_abs="22.401970"/>
    </tripinfo>
    <tripinfo id="75851_75851_386" depart="27002.00" departLane="28542995#2_0" departPos="5.10" departSpeed="0.00" departDelay="2.00" arrival="27024.00" arrivalLane="23493181#0_0" arrivalPos="88.20" arrivalSpeed="9.78" duration="22.00" routeLength="144.84" waitSteps="1" rerouteNo="1" devices="tripinfo_75851_75851_386 hbefa_75851_75851_386" vType="DEFAULT_VEHTYPE" vaporized="">
        <emissions CO_abs="542.491373" CO2_abs="42438.671180" HC_abs="13.852519" PMx_abs="4.789477" NOx_abs="87.249198" fuel_abs="16.919640"/>
    </tripinfo>
    <tripinfo id="148867_148867_417" depart="27006.00" departLane="3065455_0" departPos="5.10" departSpeed="0.00" departDelay="6.00" arrival="27024.00" arrivalLane="23800191#0_0" arrivalPos="143.94" arrivalSpeed="13.84" duration="18.00" routeLength="194.49" waitSteps="0" rerouteNo="1" devices="tripinfo_148867_148867_417 hbefa_148867_148867_417" vType="DEFAULT_VEHTYPE" vaporized="">
        <emissions CO_abs="620.592351" CO2_abs="48853.116644" HC_abs="15.151969" PMx_abs="5.502147" NOx_abs="101.535049" fuel_abs="19.476988"/>
    </tripinfo>
    <tripinfo id="225541_225541_450" depart="27000.00" departLane="9207803_0" departPos="5.10" departSpeed="0.00" departDelay="0.00" arrival="27024.00" arrivalLane="154755073#3_0" arrivalPos="102.52" arrivalSpeed="7.93" duration="24.00" routeLength="166.65" waitSteps="0" rerouteNo="1" devices="tripinfo_225541_225541_450 hbefa_225541_225541_450" vType="DEFAULT_VEHTYPE" vaporized="">
        <emissions CO_abs="298.161841" CO2_abs="38391.165753" HC_abs="11.058537" PMx_abs="3.219537" NOx_abs="71.122079" fuel_abs="15.305964"/>
    </tripinfo>
    <tripinfo id="141415_141415_415" depart="27003.00" departLane="150039002#2_0" departPos="5.10" departSpeed="0.00" departDelay="3.00" arrival="27025.00" arrivalLane="150039002#2_0" arrivalPos="249.40" arrivalSpeed="13.12" duration="22.00" routeLength="244.30" waitSteps="0" rerouteNo="0" devices="tripinfo_141415_141415_415 hbefa_141415_141415_415" vType="DEFAULT_VEHTYPE" vaporized="">
        <emissions CO_abs="553.569513" CO2_abs="50799.436199" HC_abs="14.779456" PMx_abs="5.298946" NOx_abs="102.549273" fuel_abs="20.252958"/>
    </tripinfo>
    <tripinfo id="136596_136596_411" depart="27003.00" departLane="131651824_0" departPos="5.10" departSpeed="0.00" departDelay="3.00" arrival="27026.00" arrivalLane="4400211#0_0" arrivalPos="197.56" arrivalSpeed="13.55" duration="23.00" routeLength="253.49" waitSteps="0" rerouteNo="1" devices="tripinfo_136596_136596_411 hbefa_136596_136596_411" vType="DEFAULT_VEHTYPE" vaporized="">
        <emissions CO_abs="743.806411" CO2_abs="62744.814673" HC_abs="18.723144" PMx_abs="7.001428" NOx_abs="129.243545" fuel_abs="25.015397"/>
    </tripinfo>
    <tripinfo id="220353_220353_447" depart="27001.00" departLane="-165515969#3_0" departPos="5.10" departSpeed="0.00" departDelay="0.00" arrival="27026.00" arrivalLane="-165511531#0_0" arrivalPos="53.73" arrivalSpeed="12.62" duration="25.00" routeLength="345.81" waitSteps="0" rerouteNo="2" devices="tripinfo_220353_220353_447 hbefa_220353_220353_447" vType="DEFAULT_VEHTYPE" vaporized="">
        <emissions CO_abs="2212.300655" CO2_abs="131389.412796" HC_abs="44.362396" PMx_abs="17.431362" NOx_abs="293.762193" fuel_abs="52.382967"/>
    </tripinfo>
    <tripinfo id="134089_134089_411" depart="27000.00" departLane="23800191#2_0" departPos="5.10" departSpeed="0.00" departDelay="0.00" arrival="27028.00" arrivalLane="4400211#0_0" arrivalPos="197.56" arrivalSpeed="13.10" duration="28.00" routeLength="291.90" waitSteps="0" rerouteNo="2" devices="tripinfo_134089_134089_411 hbefa_134089_134089_411" vType="DEFAULT_VEHTYPE" vaporized="">
        <emissions CO_abs="891.914506" CO2_abs="68486.057991" HC_abs="21.382700" PMx_abs="7.900663" NOx_abs="143.396524" fuel_abs="27.304338"/>
    </tripinfo>
    <tripinfo id="188835_188835_434" depart="27006.00" departLane="187965762#1_0" departPos="5.10" departSpeed="0.00" departDelay="6.00" arrival="27029.00" arrivalLane="187965762#2_0" arrivalPos="85.18" arrivalSpeed="8.05" duration="23.00" routeLength="168.92" waitSteps="0" rerouteNo="1" devices="tripinfo_188835_188835_434 hbefa_188835_188835_434" vType="DEFAULT_VEHTYPE" vaporized="">
        <emissions CO_abs="218.778407" CO2_abs="30502.222143" HC_abs="8.531574" PMx_abs="2.611873" NOx_abs="56.152146" fuel_abs="12.160764"/>
    </tripinfo>
    <tripinfo id="84113_84113_390" depart="27000.00" departLane="150031205#0_0" departPos="5.10" departSpeed="0.00" departDelay="0.00" arrival="27029.00" arrivalLane="23471158#10_0" arrivalPos="144.68" arrivalSpeed="27.21" duration="29.00" routeLength="462.65" waitSteps="2" rerouteNo="3" devices="tripinfo_84113_84113_390 hbefa_84113_84113_390" vType="DEFAULT_VEHTYPE" vaporized="">
        <emissions CO_abs="3130.859216" CO2_abs="181453.039211" HC_abs="61.208424" PMx_abs="22.951217" NOx_abs="405.349093" fuel_abs="72.342624"/>
    </tripinfo>
    <tripinfo id="122617_122617_406" depart="27000.00" departLane="131651824_0" departPos="5.10" departSpeed="0.00" departDelay="0.00" arrival="27030.00" arrivalLane="130875842_0" arrivalPos="81.21" arrivalSpeed="13.70" duration="30.00" routeLength="334.70" waitSteps="0" rerouteNo="2" devices="tripinfo_122617_122617_406 hbefa_122617_122617_406" vType="DEFAULT_VEHTYPE" vaporized="">
        <emissions CO_abs="942.682514" CO2_abs="80139.919182" HC_abs="23.871270" PMx_abs="8.706385" NOx_abs="164.448314" fuel_abs="31.950558"/>
    </tripinfo>
    <tripinfo id="118681_118681_405" depart="27000.00" departLane="23471158#6_0" departPos="5.10" departSpeed="0.00" departDelay="0.00" arrival="27031.00" arrivalLane="32856811#2_0" arrivalPos="144.91" arrivalSpeed="12.74" duration="31.00" routeLength="453.34" waitSteps="0" rerouteNo="2" devices="tripinfo_118681_118681_405 hbefa_118681_118681_405" vType="DEFAULT_VEHTYPE" vaporized="">
        <emissions CO_abs="1802.438676" CO2_abs="115501.776156" HC_abs="37.618802" PMx_abs="14.174807" NOx_abs="252.379964" fuel_abs="46.048813"/>
    </tripinfo>
    <tripinfo id="187318_187318_433" depart="27013.00" departLane="-83823403#2_0" departPos="5.10" departSpeed="0.00" departDelay="0.00" arrival="27031.00" arrivalLane="-83823403#2_0" arrivalPos="184.87" arrivalSpeed="13.46" duration="18.00" routeLength="179.77" waitSteps="0" rerouteNo="0" devices="tripinfo_187318_187318_433 hbefa_187318_187318_433" vType="DEFAULT_VEHTYPE" vaporized="">
        <emissions CO_abs="643.432373" CO2_abs="53352.456109" HC_abs="16.246716" PMx_abs="5.905023" NOx_abs="109.755477" fuel_abs="21.270805"/>
    </tripinfo>
    <tripinfo id="212444_212444_443" depart="27003.00" departLane="166155712#0_0" departPos="5.10" departSpeed="0.00" departDelay="0.00" arrival="27031.00" arrivalLane="33469672_0" arrivalPos="142.78" arrivalSpeed="13.39" duration="28.00" routeLength="317.06" waitSteps="0" rerouteNo="1" devices="tripinfo_212444_212444_443 hbefa_212444_212444_443" vType="DEFAULT_VEHTYPE" vaporized="">
        <emissions CO_abs="773.477847" CO2_abs="64842.248871" HC_abs="19.364114" PMx_abs="7.187835" NOx_abs="133.654278" fuel_abs="25.851611"/>
    </tripinfo>
    <tripinfo id="104726_104726_398" depart="27000.00" departLane="23471158#5_0" departPos="5.10" departSpeed="0.00" departDelay="0.00" arrival="27032.00" arrivalLane="32856811#2_0" arrivalPos="144.91" arrivalSpeed="12.63" duration="32.00" routeLength="464.21" waitSteps="0" rerouteNo="3" devices="tripinfo_104726_104726_398 hbefa_104726_104726_398" vType="DEFAULT_VEHTYPE" vaporized="">
        <emissions CO_abs="1863.812008" CO2_abs="122421.136121" HC_abs="39.487541" PMx_abs="15.130986" NOx_abs="266.394351" fuel_abs="48.807457"/>
    </tripinfo>
    <tripinfo id="208001_208001_441" depart="27001.00" departLane="-83823403#2_0" departPos="5.10" departSpeed="0.00" departDelay="0.00" arrival="27033.00" arrivalLane="23015529#0_0" arrivalPos="184.87" arrivalSpeed="13.41" duration="32.00" routeLength="364.64" waitSteps="0" rerouteNo="1" devices="tripinfo_208001_208001_441 hbefa_208001_208001_441" vType="DEFAULT_VEHTYPE" vaporized="">
        <emissions CO_abs="942.434857" CO2_abs="82008.015134" HC_abs="24.090501" PMx_abs="8.941969" NOx_abs="167.816860" fuel_abs="32.695341"/>
    </tripinfo>
    <tripinfo id="146563_146563_416" depart="27006.00" departLane="129833340#2_0" departPos="5.10" departSpeed="0.00" departDelay="6.00" arrival="27034.00" arrivalLane="154755096_0" arrivalPos="66.91" arrivalSpeed="13.06" duration="28.00" routeLength="417.33" waitSteps="0" rerouteNo="3" devices="tripinfo_146563_146563_416 hbefa_146563_146563_416" vType="DEFAULT_VEHTYPE" vaporized="">
        <emissions CO_abs="2172.948385" CO2_abs="130568.926640" HC_abs="43.691877" PMx_abs="16.700068" NOx_abs="290.006611" fuel_abs="52.055862"/>
    </tripinfo>
    <tripinfo id="217202_217202_446" depart="27007.00" departLane="-83823403#2_0" departPos="5.10" departSpeed="0.00" departDelay="0.00" arrival="27035.00" arrivalLane="23015533_0" arrivalPos="110.79" arrivalSpeed="13.82" duration="28.00" routeLength="290.56" waitSteps="0" rerouteNo="1" devices="tripinfo_217202_217202_446 hbefa_217202_217202_446" vType="DEFAULT_VEHTYPE" vaporized="">
        <emissions CO_abs="909.477439" CO2_abs="76437.483579" HC_abs="23.055180" PMx_abs="8.458052" NOx_abs="157.074128" fuel_abs="30.474452"/>
    </tripinfo>
    <tripinfo id="108705_108705_400" depart="27000.00" departLane="36454807#3_0" departPos="5.10" departSpeed="0.00" departDelay="0.00" arrival="27036.00" arrivalLane="32856811#2_0" arrivalPos="144.91" arrivalSpeed="13.63" duration="36.00" routeLength="538.02" waitSteps="0" rerouteNo="3" devices="tripinfo_108705_108705_400 hbefa_108705_108705_400" vType="DEFAULT_VEHTYPE" vaporized="">
        <emissions CO_abs="2560.356626" CO2_abs="159186.273918" HC_abs="52.254229" PMx_abs="20.259573" NOx_abs="351.542773" fuel_abs="63.465165"/>
    </tripinfo>
    <tripinfo id="103310_103310_397" depart="27000.00" departLane="83703645_0" departPos="5.10" departSpeed="0.00" departDelay="0.00" arrival="27036.00" arrivalLane="23493177#0_0" arrivalPos="166.52" arrivalSpeed="7.92" duration="36.00" routeLength="279.85" waitSteps="0" rerouteNo="2" devices="tripinfo_103310_103310_397 hbefa_103310_103310_397" vType="DEFAULT_VEHTYPE" vaporized="">
        <emissions CO_abs="644.689026" CO2_abs="60426.127345" HC_abs="18.228637" PMx_abs="6.155836" NOx_abs="119.971464" fuel_abs="24.090964"/>
    </tripinfo>
    <tripinfo id="144652_144652_416" depart="27000.00" departLane="3065455_0" departPos="5.10" departSpeed="0.00" departDelay="0.00" arrival="27036.00" arrivalLane="130659365_0" arrivalPos="223.21" arrivalSpeed="7.02" duration="36.00" routeLength="365.42" waitSteps="0" rerouteNo="2" devices="tripinfo_144652_144652_416 hbefa_144652_144652_416" vType="DEFAULT_VEHTYPE" vaporized="">
        <emissions CO_abs="885.798447" CO2_abs="82186.633690" HC_abs="23.857881" PMx_abs="8.515197" NOx_abs="165.463801" fuel_abs="32.766554"/>
    </tripinfo>
    <tripinfo id="154499_154499_420" depart="27000.00" departLane="28542995#0_0" departPos="5.10" departSpeed="0.00" departDelay="0.00" arrival="27037.00" arrivalLane="23493260#4_1" arrivalPos="126.60" arrivalSpeed="13.73" duration="37.00" routeLength="435.19" waitSteps="0" rerouteNo="4" devices="tripinfo_154499_154499_420 hbefa_154499_154499_420" vType="DEFAULT_VEHTYPE" vaporized="">
        <emissions CO_abs="803.396916" CO2_abs="84019.803854" HC_abs="23.085622" PMx_abs="8.119724" NOx_abs="165.953051" fuel_abs="33.497416"/>
    </tripinfo>
    <tripinfo id="238887_238887_451" depart="27010.00" departLane="-83823403#2_0" departPos="5.10" departSpeed="0.00" departDelay="0.00" arrival="27038.00" arrivalLane="23015533_0" arrivalPos="110.79" arrivalSpeed="13.56" duration="28.00" routeLength="290.56" waitSteps="0" rerouteNo="1" devices="tripinfo_238887_238887_451 hbefa_238887_238887_451" vType="DEFAULT_VEHTYPE" vaporized="">
        <emissions CO_abs="777.529967" CO2_abs="70081.205666" HC_abs="20.553213" PMx_abs="7.374729" NOx_abs="141.923062" fuel_abs="27.940303"/>
    </tripinfo>
    <tripinfo id="138122_138122_412" depart="27009.00" departLane="131651824_0" departPos="5.10" departSpeed="0.00" departDelay="9.00" arrival="27038.00" arrivalLane="130875842_0" arrivalPos="81.21" arrivalSpeed="13.28" duration="29.00" routeLength="334.70" waitSteps="0" rerouteNo="2" devices="tripinfo_138122_138122_412 hbefa_138122_138122_412" vType="DEFAULT_VEHTYPE" vaporized="">
        <emissions CO_abs="936.059482" CO2_abs="71615.182928" HC_abs="22.159952" PMx_abs="8.373450" NOx_abs="150.582043" fuel_abs="28.551874"/>
    </tripinfo>
    <tripinfo id="218769_218769_446" depart="27003.00" departLane="-55940134_0" departPos="5.10" departSpeed="0.00" departDelay="3.00" arrival="27040.00" arrivalLane="-144935692#1_1" arrivalPos="103.61" arrivalSpeed="12.66" duration="37.00" routeLength="447.77" waitSteps="0" rerouteNo="3" devices="tripinfo_218769_218769_446 hbefa_218769_218769_446" vType="DEFAULT_VEHTYPE" vaporized="">
        <emissions CO_abs="579.647637" CO2_abs="70302.867202" HC_abs="18.326503" PMx_abs="6.394493" NOx_abs="135.785838" fuel_abs="28.028687"/>
    </tripinfo>
    <tripinfo id="197472_197472_436" depart="27006.00" departLane="23800191#2_0" departPos="5.10" departSpeed="0.00" departDelay="6.00" arrival="27040.00" arrivalLane="130875842_0" arrivalPos="81.21" arrivalSpeed="13.41" duration="34.00" routeLength="373.11" waitSteps="0" rerouteNo="3" devices="tripinfo_197472_197472_436 hbefa_197472_197472_436" vType="DEFAULT_VEHTYPE" vaporized="">
        <emissions CO_abs="778.464519" CO2_abs="78559.038563" HC_abs="22.230870" PMx_abs="7.519990" NOx_abs="155.132954" fuel_abs="31.320288"/>
    </tripinfo>
    <tripinfo id="101376_101376_396" depart="27003.00" departLane="23471158#0_0" departPos="5.10" departSpeed="0.00" departDelay="3.00" arrival="27041.00" arrivalLane="32856811#2_0" arrivalPos="144.91" arrivalSpeed="13.72" duration="38.00" routeLength="664.02" waitSteps="0" rerouteNo="3" devices="tripinfo_101376_101376_396 hbefa_101376_101376_396" vType="DEFAULT_VEHTYPE" vaporized="">
        <emissions CO_abs="2916.086787" CO2_abs="179978.111600" HC_abs="58.417804" PMx_abs="22.367404" NOx_abs="397.323837" fuel_abs="71.754594"/>
    </tripinfo>
    <tripinfo id="103637_103637_397" depart="27000.00" departLane="145474196#1_0" departPos="5.10" departSpeed="0.00" departDelay="0.00" arrival="27041.00" arrivalLane="150039002#2_0" arrivalPos="249.40" arrivalSpeed="13.42" duration="41.00" routeLength="361.28" waitSteps="4" rerouteNo="3" devices="tripinfo_103637_103637_397 hbefa_103637_103637_397" vType="DEFAULT_VEHTYPE" vaporized="">
        <emissions CO_abs="921.717930" CO2_abs="81891.183662" HC_abs="24.449017" PMx_abs="8.469468" NOx_abs="165.358838" fuel_abs="32.648759"/>
    </tripinfo>
    <tripinfo id="171544_171544_426" depart="27000.00" departLane="187965762#1_0" departPos="5.10" departSpeed="0.00" departDelay="0.00" arrival="27041.00" arrivalLane="23800191#0_0" arrivalPos="143.94" arrivalSpeed="12.94" duration="41.00" routeLength="368.51" waitSteps="0" rerouteNo="3" devices="tripinfo_171544_171544_426 hbefa_171544_171544_426" vType="DEFAULT_VEHTYPE" vaporized="">
        <emissions CO_abs="556.149658" CO2_abs="64724.016161" HC_abs="17.938189" PMx_abs="5.820126" NOx_abs="123.933692" fuel_abs="25.804474"/>
    </tripinfo>
    <tripinfo id="244420_244420_453" depart="27015.00" departLane="-165515969#3_0" departPos="5.10" departSpeed="0.00" departDelay="0.00" arrival="27041.00" arrivalLane="-165511531#0_0" arrivalPos="53.73" arrivalSpeed="12.99" duration="26.00" routeLength="345.81" waitSteps="0" rerouteNo="2" devices="tripinfo_244420_244420_453 hbefa_244420_244420_453" vType="DEFAULT_VEHTYPE" vaporized="">
        <emissions CO_abs="2147.755747" CO2_abs="130701.955509" HC_abs="43.737602" PMx_abs="16.781217" NOx_abs="289.589486" fuel_abs="52.108890"/>
    </tripinfo>
    <tripinfo id="184987_184987_431" depart="27000.00" departLane="-186463490#0_0" departPos="5.10" departSpeed="0.00" departDelay="0.00" arrival="27042.00" arrivalLane="-144935692#1_1" arrivalPos="103.61" arrivalSpeed="13.51" duration="42.00" routeLength="500.46" waitSteps="0" rerouteNo="4" devices="tripinfo_184987_184987_431 hbefa_184987_184987_431" vType="DEFAULT_VEHTYPE" vaporized="">
        <emissions CO_abs="625.317695" CO2_abs="78286.803877" HC_abs="20.371974" PMx_abs="6.749950" NOx_abs="149.724988" fuel_abs="31.211761"/>
    </tripinfo>
    <tripinfo id="245947_245947_454" depart="27016.00" departLane="-83823403#2_0" departPos="5.10" departSpeed="0.00" departDelay="0.00" arrival="27042.00" arrivalLane="23015533_0" arrivalPos="110.79" arrivalSpeed="13.76" duration="26.00" routeLength="290.56" waitSteps="0" rerouteNo="1" devices="tripinfo_245947_245947_454 hbefa_245947_245947_454" vType="DEFAULT_VEHTYPE" vaporized="">
        <emissions CO_abs="806.540829" CO2_abs="65369.576555" HC_abs="19.935091" PMx_abs="7.301664" NOx_abs="135.328040" fuel_abs="26.061847"/>
    </tripinfo>
    <tripinfo id="211099_211099_442" depart="27013.00" departLane="166155712#0_0" departPos="5.10" departSpeed="0.00" departDelay="0.00" arrival="27042.00" arrivalLane="33469672_0" arrivalPos="142.78" arrivalSpeed="13.48" duration="29.00" routeLength="317.06" waitSteps="0" rerouteNo="1" devices="tripinfo_211099_211099_442 hbefa_211099_211099_442" vType="DEFAULT_VEHTYPE" vaporized="">
        <emissions CO_abs="789.601536" CO2_abs="70767.420659" HC_abs="20.766157" PMx_abs="7.418971" NOx_abs="143.375189" fuel_abs="28.213887"/>
    </tripinfo>
    <tripinfo id="224931_224931_449" depart="27026.00" departLane="-28523795_0" departPos="5.10" departSpeed="0.00" departDelay="0.00" arrival="27043.00" arrivalLane="-28523795_0" arrivalPos="192.02" arrivalSpeed="13.15" duration="17.00" routeLength="186.92" waitSteps="0" rerouteNo="0" devices="tripinfo_224931_224931_449 hbefa_224931_224931_449" vType="DEFAULT_VEHTYPE" vaporized="">
        <emissions CO_abs="501.117156" CO2_abs="39405.771482" HC_abs="12.254121" PMx_abs="4.522837" NOx_abs="81.976556" fuel_abs="15.710475"/>
    </tripinfo>
    <tripinfo id="212327_212327_442" depart="27014.00" departLane="198147972_0" departPos="5.10" departSpeed="0.00" departDelay="0.00" arrival="27043.00" arrivalLane="4353628#1_0" arrivalPos="68.95" arrivalSpeed="13.09" duration="29.00" routeLength="339.08" waitSteps="0" rerouteNo="3" devices="tripinfo_212327_212327_442 hbefa_212327_212327_442" vType="DEFAULT_VEHTYPE" vaporized="">
        <emissions CO_abs="587.123762" CO2_abs="59434.085431" HC_abs="16.633849" PMx_abs="5.737368" NOx_abs="117.661568" fuel_abs="23.695464"/>
    </tripinfo>
    <tripinfo id="95606_95606_394" depart="27000.00" departLane="8225148_0" departPos="5.10" departSpeed="0.00" departDelay="0.00" arrival="27045.00" arrivalLane="145261451_0" arrivalPos="86.92" arrivalSpeed="13.17" duration="45.00" routeLength="515.94" waitSteps="0" rerouteNo="5" devices="tripinfo_95606_95606_394 hbefa_95606_95606_394" vType="DEFAULT_VEHTYPE" vaporized="">
        <emissions CO_abs="1230.797640" CO2_abs="112043.046364" HC_abs="32.230558" PMx_abs="11.892729" NOx_abs="227.542383" fuel_abs="44.669851"/>
    </tripinfo>
    <tripinfo id="162999_162999_422" depart="27000.00" departLane="150031230#2_0" departPos="5.10" departSpeed="0.00" departDelay="0.00" arrival="27045.00" arrivalLane="129833341#0_1" arrivalPos="129.85" arrivalSpeed="13.17" duration="45.00" routeLength="303.50" waitSteps="12" rerouteNo="1" devices="tripinfo_162999_162999_422 hbefa_162999_162999_422" vType="DEFAULT_VEHTYPE" vaporized="">
        <emissions CO_abs="922.251615" CO2_abs="81033.686128" HC_abs="24.227582" PMx_abs="8.648541" NOx_abs="164.354033" fuel_abs="32.306888"/>
    </tripinfo>
    <tripinfo id="101939_101939_396" depart="27006.00" departLane="23471158#0_0" departPos="5.10" departSpeed="0.00" departDelay="6.00" arrival="27045.00" arrivalLane="32856811#2_0" arrivalPos="144.91" arrivalSpeed="13.73" duration="39.00" routeLength="664.02" waitSteps="0" rerouteNo="3" devices="tripinfo_101939_101939_396 hbefa_101939_101939_396" vType="DEFAULT_VEHTYPE" vaporized="">
        <emissions CO_abs="2291.220891" CO2_abs="157005.300946" HC_abs="48.264952" PMx_abs="17.567486" NOx_abs="336.138368" fuel_abs="62.595703"/>
    </tripinfo>
    <tripinfo id="192246_192246_435" depart="27018.00" departLane="2511537#2_0" departPos="5.10" departSpeed="0.00" departDelay="18.00" arrival="27045.00" arrivalLane="2511537#2_0" arrivalPos="191.15" arrivalSpeed="7.88" duration="27.00" routeLength="186.05" waitSteps="0" rerouteNo="0" devices="tripinfo_192246_192246_435 hbefa_192246_192246_435" vType="DEFAULT_VEHTYPE" vaporized="">
        <emissions CO_abs="241.040921" CO2_abs="33765.380074" HC_abs="9.576426" PMx_abs="2.816732" NOx_abs="61.787076" fuel_abs="13.461735"/>
    </tripinfo>
    <tripinfo id="221885_221885_448" depart="27017.00" departLane="-175607927#0_0" departPos="5.10" departSpeed="0.00" departDelay="0.00" arrival="27046.00" arrivalLane="-29214406_0" arrivalPos="179.38" arrivalSpeed="13.07" duration="29.00" routeLength="317.06" waitSteps="0" rerouteNo="1" devices="tripinfo_221885_221885_448 hbefa_221885_221885_448" vType="DEFAULT_VEHTYPE" vaporized="">