<?xml version="1.0" encoding="UTF-8"?>

<!-- generated on Tue Feb 25 13:38:39 2014 by SUMO sumo Version 0.19.0
<?xml version="1.0" encoding="UTF-8"?>

<configuration xmlns:xsi="http://www.w3.org/2001/XMLSchema-instance" xsi:noNamespaceSchemaLocation="http://sumo-sim.org/xsd/sumoConfiguration.xsd">

    <input>
        <net-file value="data/map.net.xml"/>
        <route-files value="data/map.rou.xml"/>
    </input>

    <output>
        <tripinfo-output value="data/maptripinfoLocal.out.xml"/>
        <save-state.prefix value="data/state"/>
    </output>

    <time>
        <begin value="27000"/>
        <end value="27900"/>
    </time>

    <processing>
        <route-steps value="200"/>
        <scale value="0.8"/>
        <time-to-teleport value="300"/>
        <lanechange.allow-swap value="true"/>
    </processing>

    <report>
        <verbose value="true"/>
        <no-warnings value="true"/>
        <no-step-log value="true"/>
    </report>

    <emissions>
        <device.hbefa.probability value="1"/>
    </emissions>

    <traci_server>
        <remote-port value="8814"/>
    </traci_server>

</configuration>
-->

<tripinfos>
    <tripinfo id="136022_136022_411" depart="27003.00" departLane="23800191#2_0" departPos="5.10" departSpeed="0.00" departDelay="3.00" arrival="27009.00" arrivalLane="23800191#2_0" arrivalPos="38.41" arrivalSpeed="11.33" duration="6.00" routeLength="33.31" waitSteps="0" rerouteNo="1" devices="tripinfo_136022_136022_411 hbefa_136022_136022_411" vType="DEFAULT_VEHTYPE" vaporized="">
        <emissions CO_abs="320.375922" CO2_abs="22348.297781" HC_abs="7.589719" PMx_abs="2.698114" NOx_abs="47.238799" fuel_abs="8.909919"/>
    </tripinfo>
    <tripinfo id="182087_182087_431" depart="27000.00" departLane="4380937#2_0" departPos="5.10" departSpeed="0.00" departDelay="0.00" arrival="27011.00" arrivalLane="4380937#3_0" arrivalPos="72.76" arrivalSpeed="13.14" duration="11.00" routeLength="103.50" waitSteps="0" rerouteNo="2" devices="tripinfo_182087_182087_431 hbefa_182087_182087_431" vType="DEFAULT_VEHTYPE" vaporized="">
        <emissions CO_abs="464.436855" CO2_abs="35101.590508" HC_abs="11.201617" PMx_abs="4.142661" NOx_abs="73.569148" fuel_abs="13.994463"/>
    </tripinfo>
    <tripinfo id="72912_72912_384" depart="27003.00" departLane="9207803_0" departPos="5.10" departSpeed="0.00" departDelay="3.00" arrival="27014.00" arrivalLane="9207803_0" arrivalPos="69.23" arrivalSpeed="8.28" duration="11.00" routeLength="64.13" waitSteps="0" rerouteNo="1" devices="tripinfo_72912_72912_384 hbefa_72912_72912_384" vType="DEFAULT_VEHTYPE" vaporized="">
        <emissions CO_abs="297.643265" CO2_abs="23813.140664" HC_abs="7.811632" PMx_abs="2.672211" NOx_abs="48.525212" fuel_abs="9.493929"/>
    </tripinfo>
    <tripinfo id="251564_251564_457" depart="27002.00" departLane="51113317_0" departPos="5.10" departSpeed="0.00" departDelay="0.00" arrival="27014.00" arrivalLane="51113317_0" arrivalPos="125.08" arrivalSpeed="13.09" duration="12.00" routeLength="119.98" waitSteps="0" rerouteNo="1" devices="tripinfo_251564_251564_457 hbefa_251564_251564_457" vType="DEFAULT_VEHTYPE" vaporized="">
        <emissions CO_abs="405.781589" CO2_abs="33227.301857" HC_abs="10.293240" PMx_abs="3.655366" NOx_abs="68.245497" fuel_abs="13.247214"/>
    </tripinfo>
    <tripinfo id="92380_92380_392" depart="27000.00" departLane="-154755073#3_0" departPos="5.10" departSpeed="0.00" departDelay="0.00" arrival="27015.00" arrivalLane="-154755073#3_0" arrivalPos="102.52" arrivalSpeed="7.73" duration="15.00" routeLength="97.42" waitSteps="0" rerouteNo="1" devices="tripinfo_92380_92380_392 hbefa_92380_92380_392" vType="DEFAULT_VEHTYPE" vaporized="">
        <emissions CO_abs="204.368346" CO2_abs="24753.619988" HC_abs="7.308907" PMx_abs="2.144412" NOx_abs="46.235488" fuel_abs="9.868885"/>
    </tripinfo>
    <tripinfo id="84049_84049_390" depart="27006.00" departLane="9207803_0" departPos="5.10" departSpeed="0.00" departDelay="6.00" arrival="27016.00" arrivalLane="9207803_0" arrivalPos="69.23" arrivalSpeed="8.27" duration="10.00" routeLength="64.13" waitSteps="0" rerouteNo="1" devices="tripinfo_84049_84049_390 hbefa_84049_84049_390" vType="DEFAULT_VEHTYPE" vaporized="">
        <emissions CO_abs="226.901050" CO2_abs="20528.131546" HC_abs="6.500966" PMx_abs="2.186339" NOx_abs="40.653866" fuel_abs="8.184247"/>
    </tripinfo>
    <tripinfo id="232041_232041_451" depart="27002.00" departLane="28523795_0" departPos="5.10" departSpeed="0.00" departDelay="0.00" arrival="27020.00" arrivalLane="28523795_0" arrivalPos="192.02" arrivalSpeed="13.44" duration="18.00" routeLength="186.92" waitSteps="0" rerouteNo="1" devices="tripinfo_232041_232041_451 hbefa_232041_232041_451" vType="DEFAULT_VEHTYPE" vaporized="">
        <emissions CO_abs="516.824392" CO2_abs="42484.365599" HC_abs="13.013066" PMx_abs="4.627755" NOx_abs="87.324125" fuel_abs="16.937864"/>
    </tripinfo>
    <tripinfo id="135880_135880_411" depart="27000.00" departLane="150039002#2_0" departPos="5.10" departSpeed="0.00" departDelay="0.00" arrival="27021.00" arrivalLane="150039002#2_0" arrivalPos="249.40" arrivalSpeed="13.72" duration="21.00" routeLength="244.30" waitSteps="0" rerouteNo="1" devices="tripinfo_135880_135880_411 hbefa_135880_135880_411" vType="DEFAULT_VEHTYPE" vaporized="">
        <emissions CO_abs="560.699523" CO2_abs="51822.922469" HC_abs="14.968846" PMx_abs="5.331964" NOx_abs="104.480075" fuel_abs="20.661008"/>
    </tripinfo>
    <tripinfo id="105435_105435_398" depart="27003.00" departLane="145474196#1_0" departPos="5.10" departSpeed="0.00" departDelay="3.00" arrival="27021.00" arrivalLane="145474196#1_0" arrivalPos="94.12" arrivalSpeed="5.16" duration="18.00" routeLength="89.02" waitSteps="0" rerouteNo="1" devices="tripinfo_105435_105435_398 hbefa_105435_105435_398" vType="DEFAULT_VEHTYPE" vaporized="">
        <emissions CO_abs="547.787833" CO2_abs="38072.926849" HC_abs="13.083133" PMx_abs="4.617894" NOx_abs="80.322803" fuel_abs="15.179085"/>
    </tripinfo>
    <tripinfo id="219187_219187_446" depart="27000.00" departLane="144935690_0" departPos="5.10" departSpeed="0.00" departDelay="0.00" arrival="27022.00" arrivalLane="25997632_0" arrivalPos="136.14" arrivalSpeed="12.86" duration="22.00" routeLength="241.37" waitSteps="0" rerouteNo="1" devices="tripinfo_219187_219187_446 hbefa_219187_219187_446" vType="DEFAULT_VEHTYPE" vaporized="">
        <emissions CO_abs="543.124609" CO2_abs="54359.891670" HC_abs="15.264149" PMx_abs="5.518338" NOx_abs="108.270911" fuel_abs="21.672460"/>
    </tripinfo>
    <tripinfo id="206737_206737_440" depart="27007.00" departLane="-29206900_0" departPos="5.10" departSpeed="0.00" departDelay="0.00" arrival="27022.00" arrivalLane="29207110_0" arrivalPos="28.94" arrivalSpeed="13.27" duration="15.00" routeLength="103.46" waitSteps="0" rerouteNo="1" devices="tripinfo_206737_206737_440 hbefa_206737_206737_440" vType="DEFAULT_VEHTYPE" vaporized="">
        <emissions CO_abs="650.813672" CO2_abs="45032.121985" HC_abs="15.057441" PMx_abs="5.661673" NOx_abs="96.219695" fuel_abs="17.953608"/>
    </tripinfo>
    <tripinfo id="225242_225242_449" depart="27000.00" departLane="154755124_0" departPos="5.10" departSpeed="0.00" departDelay="0.00" arrival="27024.00" arrivalLane="4380937#3_1" arrivalPos="72.76" arrivalSpeed="12.69" duration="24.00" routeLength="103.50" waitSteps="0" rerouteNo="2" devices="tripinfo_225242_225242_449 hbefa_225242_225242_449" vType="DEFAULT_VEHTYPE" vaporized="">
        <emissions CO_abs="631.625638" CO2_abs="50166.222930" HC_abs="15.954310" PMx_abs="5.566697" NOx_abs="103.241023" fuel_abs="20.000498"/>
    </tripinfo>
    <tripinfo id="110327_110327_401" depart="27000.00" departLane="53212166#0_0" departPos="5.10" departSpeed="0.00" departDelay="0.00" arrival="27024.00" arrivalLane="28542995#2_2" arrivalPos="61.74" arrivalSpeed="13.87" duration="24.00" routeLength="231.82" waitSteps="0" rerouteNo="1" devices="tripinfo_110327_110327_401 hbefa_110327_110327_401" vType="DEFAULT_VEHTYPE" vaporized="">
        <emissions CO_abs="486.320167" CO2_abs="49992.901776" HC_abs="14.170891" PMx_abs="4.955805" NOx_abs="98.470413" fuel_abs="19.931405"/>
    </tripinfo>
    <tripinfo id="148867_148867_417" depart="27006.00" departLane="3065455_0" departPos="5.10" departSpeed="0.00" departDelay="6.00" arrival="27024.00" arrivalLane="23800191#0_0" arrivalPos="143.94" arrivalSpeed="12.82" duration="18.00" routeLength="194.49" waitSteps="0" rerouteNo="1" devices="tripinfo_148867_148867_417 hbefa_148867_148867_417" vType="DEFAULT_VEHTYPE" vaporized="">
        <emissions CO_abs="494.053835" CO2_abs="42900.846873" HC_abs="12.869146" PMx_abs="4.662210" NOx_abs="87.423896" fuel_abs="17.103910"/>
    </tripinfo>
    <tripinfo id="141415_141415_415" depart="27003.00" departLane="150039002#2_0" departPos="5.10" departSpeed="0.00" departDelay="3.00" arrival="27025.00" arrivalLane="150039002#2_0" arrivalPos="249.40" arrivalSpeed="13.36" duration="22.00" routeLength="244.30" waitSteps="0" rerouteNo="1" devices="tripinfo_141415_141415_415 hbefa_141415_141415_415" vType="DEFAULT_VEHTYPE" vaporized="">
        <emissions CO_abs="595.114040" CO2_abs="50725.008202" HC_abs="15.174471" PMx_abs="5.439521" NOx_abs="103.769548" fuel_abs="20.223284"/>
    </tripinfo>
    <tripinfo id="225541_225541_450" depart="27000.00" departLane="9207803_0" departPos="5.10" departSpeed="0.00" departDelay="0.00" arrival="27025.00" arrivalLane="154755073#3_0" arrivalPos="102.52" arrivalSpeed="7.28" duration="25.00" routeLength="166.65" waitSteps="0" rerouteNo="1" devices="tripinfo_225541_225541_450 hbefa_225541_225541_450" vType="DEFAULT_VEHTYPE" vaporized="">
        <emissions CO_abs="331.899503" CO2_abs="39374.147856" HC_abs="11.495681" PMx_abs="3.539450" NOx_abs="74.056504" fuel_abs="15.697863"/>
    </tripinfo>
    <tripinfo id="75851_75851_386" depart="27002.00" departLane="28542995#2_0" departPos="5.10" departSpeed="0.00" departDelay="2.00" arrival="27026.00" arrivalLane="23493181#0_0" arrivalPos="88.20" arrivalSpeed="9.83" duration="24.00" routeLength="144.84" waitSteps="1" rerouteNo="1" devices="tripinfo_75851_75851_386 hbefa_75851_75851_386" vType="DEFAULT_VEHTYPE" vaporized="">
        <emissions CO_abs="538.257176" CO2_abs="43980.269002" HC_abs="14.331753" PMx_abs="4.858018" NOx_abs="89.200394" fuel_abs="17.534250"/>
    </tripinfo>
    <tripinfo id="136596_136596_411" depart="27003.00" departLane="131651824_0" departPos="5.10" departSpeed="0.00" departDelay="3.00" arrival="27026.00" arrivalLane="4400211#0_0" arrivalPos="197.56" arrivalSpeed="12.11" duration="23.00" routeLength="253.49" waitSteps="0" rerouteNo="1" devices="tripinfo_136596_136596_411 hbefa_136596_136596_411" vType="DEFAULT_VEHTYPE" vaporized="">
        <emissions CO_abs="734.818177" CO2_abs="60089.275824" HC_abs="18.281824" PMx_abs="6.648327" NOx_abs="124.015999" fuel_abs="23.956672"/>
    </tripinfo>
    <tripinfo id="134089_134089_411" depart="27000.00" departLane="23800191#2_0" departPos="5.10" departSpeed="0.00" departDelay="0.00" arrival="27028.00" arrivalLane="4400211#0_0" arrivalPos="197.56" arrivalSpeed="12.60" duration="28.00" routeLength="291.90" waitSteps="0" rerouteNo="1" devices="tripinfo_134089_134089_411 hbefa_134089_134089_411" vType="DEFAULT_VEHTYPE" vaporized="">
        <emissions CO_abs="727.136553" CO2_abs="65248.220295" HC_abs="19.307200" PMx_abs="6.810549" NOx_abs="131.892161" fuel_abs="26.013464"/>
    </tripinfo>
    <tripinfo id="220353_220353_447" depart="27001.00" departLane="-165515969#3_0" departPos="5.10" departSpeed="0.00" departDelay="0.00" arrival="27029.00" arrivalLane="-165511531#0_0" arrivalPos="53.73" arrivalSpeed="13.17" duration="28.00" routeLength="345.81" waitSteps="0" rerouteNo="2" devices="tripinfo_220353_220353_447 hbefa_220353_220353_447" vType="DEFAULT_VEHTYPE" vaporized="">
        <emissions CO_abs="2403.648240" CO2_abs="141467.326753" HC_abs="48.287430" PMx_abs="18.958111" NOx_abs="316.797886" fuel_abs="56.400872"/>
    </tripinfo>
    <tripinfo id="184987_184987_431" depart="27000.00" departLane="-186463490#0_0" departPos="5.10" departSpeed="0.00" departDelay="0.00" arrival="27030.00" arrivalLane="-144935692#1_0" arrivalPos="103.61" arrivalSpeed="13.74" duration="30.00" routeLength="500.46" waitSteps="0" rerouteNo="1" devices="tripinfo_184987_184987_431 hbefa_184987_184987_431" vType="DEFAULT_VEHTYPE" vaporized="">
        <emissions CO_abs="575.081630" CO2_abs="59775.516619" HC_abs="16.594424" PMx_abs="5.927652" NOx_abs="118.169526" fuel_abs="23.831587"/>
    </tripinfo>
    <tripinfo id="188835_188835_434" depart="27006.00" departLane="187965762#1_0" departPos="5.10" departSpeed="0.00" departDelay="6.00" arrival="27030.00" arrivalLane="187965762#2_0" arrivalPos="85.18" arrivalSpeed="7.71" duration="24.00" routeLength="168.92" waitSteps="0" rerouteNo="1" devices="tripinfo_188835_188835_434 hbefa_188835_188835_434" vType="DEFAULT_VEHTYPE" vaporized="">
        <emissions CO_abs="264.453420" CO2_abs="31040.802807" HC_abs="9.110090" PMx_abs="2.734304" NOx_abs="58.479837" fuel_abs="12.375487"/>
    </tripinfo>
    <tripinfo id="122617_122617_406" depart="27000.00" departLane="131651824_0" departPos="5.10" departSpeed="0.00" departDelay="0.00" arrival="27031.00" arrivalLane="130875842_0" arrivalPos="81.21" arrivalSpeed="12.91" duration="31.00" routeLength="334.70" waitSteps="0" rerouteNo="1" devices="tripinfo_122617_122617_406 hbefa_122617_122617_406" vType="DEFAULT_VEHTYPE" vaporized="">
        <emissions CO_abs="917.268399" CO2_abs="73785.881968" HC_abs="22.559977" PMx_abs="8.327017" NOx_abs="153.097080" fuel_abs="29.417298"/>
    </tripinfo>
    <tripinfo id="104726_104726_398" depart="27000.00" departLane="23471158#5_0" departPos="5.10" departSpeed="0.00" departDelay="0.00" arrival="27032.00" arrivalLane="32856811#2_0" arrivalPos="144.91" arrivalSpeed="13.28" duration="32.00" routeLength="464.21" waitSteps="0" rerouteNo="1" devices="tripinfo_104726_104726_398 hbefa_104726_104726_398" vType="DEFAULT_VEHTYPE" vaporized="">
        <emissions CO_abs="2157.406099" CO2_abs="136731.450133" HC_abs="44.638685" PMx_abs="17.058677" NOx_abs="299.705918" fuel_abs="54.512771"/>
    </tripinfo>
    <tripinfo id="187318_187318_433" depart="27013.00" departLane="-83823403#2_0" departPos="5.10" departSpeed="0.00" departDelay="0.00" arrival="27032.00" arrivalLane="-83823403#2_0" arrivalPos="184.87" arrivalSpeed="10.99" duration="19.00" routeLength="179.77" waitSteps="0" rerouteNo="1" devices="tripinfo_187318_187318_433 hbefa_187318_187318_433" vType="DEFAULT_VEHTYPE" vaporized="">
        <emissions CO_abs="626.574477" CO2_abs="50026.916102" HC_abs="15.566169" PMx_abs="5.616712" NOx_abs="103.498780" fuel_abs="19.944962"/>
    </tripinfo>
    <tripinfo id="212444_212444_443" depart="27003.00" departLane="166155712#0_0" departPos="5.10" departSpeed="0.00" departDelay="0.00" arrival="27033.00" arrivalLane="33469672_0" arrivalPos="142.78" arrivalSpeed="13.48" duration="30.00" routeLength="317.06" waitSteps="0" rerouteNo="1" devices="tripinfo_212444_212444_443 hbefa_212444_212444_443" vType="DEFAULT_VEHTYPE" vaporized="">
        <emissions CO_abs="949.790954" CO2_abs="81615.907482" HC_abs="24.233777" PMx_abs="8.885945" NOx_abs="167.103687" fuel_abs="32.539012"/>
    </tripinfo>
    <tripinfo id="208001_208001_441" depart="27001.00" departLane="-83823403#2_0" departPos="5.10" departSpeed="0.00" departDelay="0.00" arrival="27036.00" arrivalLane="23015529#0_0" arrivalPos="184.87" arrivalSpeed="12.59" duration="35.00" routeLength="364.64" waitSteps="0" rerouteNo="1" devices="tripinfo_208001_208001_441 hbefa_208001_208001_441" vType="DEFAULT_VEHTYPE" vaporized="">
        <emissions CO_abs="907.171487" CO2_abs="78942.705158" HC_abs="23.572747" PMx_abs="8.327109" NOx_abs="160.528312" fuel_abs="31.473246"/>
    </tripinfo>
    <tripinfo id="217202_217202_446" depart="27007.00" departLane="-83823403#2_0" departPos="5.10" departSpeed="0.00" departDelay="0.00" arrival="27036.00" arrivalLane="23015533_0" arrivalPos="110.79" arrivalSpeed="13.42" duration="29.00" routeLength="290.56" waitSteps="0" rerouteNo="1" devices="tripinfo_217202_217202_446 hbefa_217202_217202_446" vType="DEFAULT_VEHTYPE" vaporized="">
        <emissions CO_abs="1020.148719" CO2_abs="77014.951530" HC_abs="24.163529" PMx_abs="9.226930" NOx_abs="162.404868" fuel_abs="30.704676"/>
    </tripinfo>
    <tripinfo id="103310_103310_397" depart="27000.00" departLane="83703645_0" departPos="5.10" departSpeed="0.00" departDelay="0.00" arrival="27038.00" arrivalLane="23493177#0_0" arrivalPos="166.52" arrivalSpeed="7.34" duration="38.00" routeLength="279.85" waitSteps="0" rerouteNo="1" devices="tripinfo_103310_103310_397 hbefa_103310_103310_397" vType="DEFAULT_VEHTYPE" vaporized="">
        <emissions CO_abs="434.473946" CO2_abs="51240.476152" HC_abs="14.878278" PMx_abs="4.518099" NOx_abs="96.673486" fuel_abs="20.428785"/>
    </tripinfo>
    <tripinfo id="118681_118681_405" depart="27000.00" departLane="23471158#6_0" departPos="5.10" departSpeed="0.00" departDelay="0.00" arrival="27039.00" arrivalLane="32856811#2_1" arrivalPos="144.91" arrivalSpeed="13.31" duration="39.00" routeLength="447.44" waitSteps="0" rerouteNo="1" devices="tripinfo_118681_118681_405 hbefa_118681_118681_405" vType="DEFAULT_VEHTYPE" vaporized="">
        <emissions CO_abs="1298.904681" CO2_abs="106819.250636" HC_abs="31.903926" PMx_abs="11.908112" NOx_abs="221.319407" fuel_abs="42.587203"/>
    </tripinfo>
    <tripinfo id="238887_238887_451" depart="27010.00" departLane="-83823403#2_0" departPos="5.10" departSpeed="0.00" departDelay="0.00" arrival="27039.00" arrivalLane="23015533_0" arrivalPos="110.79" arrivalSpeed="13.04" duration="29.00" routeLength="290.56" waitSteps="0" rerouteNo="1" devices="tripinfo_238887_238887_451 hbefa_238887_238887_451" vType="DEFAULT_VEHTYPE" vaporized="">
        <emissions CO_abs="884.543339" CO2_abs="69508.164244" HC_abs="21.604705" PMx_abs="7.864016" NOx_abs="144.545961" fuel_abs="27.711836"/>
    </tripinfo>
    <tripinfo id="154499_154499_420" depart="27000.00" departLane="28542995#0_0" departPos="5.10" departSpeed="0.00" departDelay="0.00" arrival="27040.00" arrivalLane="23493260#4_1" arrivalPos="126.60" arrivalSpeed="13.88" duration="40.00" routeLength="435.19" waitSteps="0" rerouteNo="1" devices="tripinfo_154499_154499_420 hbefa_154499_154499_420" vType="DEFAULT_VEHTYPE" vaporized="">
        <emissions CO_abs="895.728354" CO2_abs="92997.052931" HC_abs="25.701207" PMx_abs="9.042249" NOx_abs="183.715438" fuel_abs="37.076507"/>
    </tripinfo>
    <tripinfo id="144652_144652_416" depart="27000.00" departLane="3065455_0" departPos="5.10" departSpeed="0.00" departDelay="0.00" arrival="27040.00" arrivalLane="130659365_0" arrivalPos="223.21" arrivalSpeed="5.37" duration="40.00" routeLength="365.42" waitSteps="0" rerouteNo="1" devices="tripinfo_144652_144652_416 hbefa_144652_144652_416" vType="DEFAULT_VEHTYPE" vaporized="">
        <emissions CO_abs="671.868204" CO2_abs="63428.823268" HC_abs="18.770069" PMx_abs="6.445159" NOx_abs="126.380958" fuel_abs="25.288099"/>
    </tripinfo>
    <tripinfo id="171544_171544_426" depart="27000.00" departLane="187965762#1_0" departPos="5.10" departSpeed="0.00" departDelay="0.00" arrival="27040.00" arrivalLane="23800191#0_0" arrivalPos="143.94" arrivalSpeed="13.29" duration="40.00" routeLength="368.51" waitSteps="0" rerouteNo="1" devices="tripinfo_171544_171544_426 hbefa_171544_171544_426" vType="DEFAULT_VEHTYPE" vaporized="">
        <emissions CO_abs="600.982272" CO2_abs="65998.453434" HC_abs="18.526777" PMx_abs="6.390645" NOx_abs="128.258021" fuel_abs="26.312572"/>
    </tripinfo>
    <tripinfo id="138122_138122_412" depart="27009.00" departLane="131651824_0" departPos="5.10" departSpeed="0.00" departDelay="9.00" arrival="27040.00" arrivalLane="130875842_0" arrivalPos="81.21" arrivalSpeed="13.36" duration="31.00" routeLength="334.70" waitSteps="0" rerouteNo="1" devices="tripinfo_138122_138122_412 hbefa_138122_138122_412" vType="DEFAULT_VEHTYPE" vaporized="">
        <emissions CO_abs="857.688211" CO2_abs="73382.447044" HC_abs="21.981729" PMx_abs="7.853063" NOx_abs="149.902100" fuel_abs="29.256456"/>
    </tripinfo>
    <tripinfo id="218769_218769_446" depart="27003.00" departLane="-55940134_0" departPos="5.10" departSpeed="0.00" departDelay="3.00" arrival="27041.00" arrivalLane="-144935692#1_1" arrivalPos="103.61" arrivalSpeed="13.29" duration="38.00" routeLength="447.77" waitSteps="0" rerouteNo="1" devices="tripinfo_218769_218769_446 hbefa_218769_218769_446" vType="DEFAULT_VEHTYPE" vaporized="">
        <emissions CO_abs="590.494923" CO2_abs="71177.246679" HC_abs="18.744850" PMx_abs="6.392565" NOx_abs="136.984302" fuel_abs="28.377288"/>
    </tripinfo>
    <tripinfo id="68737_68737_381" depart="27027.00" departLane="23493176_0" departPos="5.10" departSpeed="0.00" departDelay="27.00" arrival="27041.00" arrivalLane="23493176_1" arrivalPos="83.31" arrivalSpeed="8.00" duration="14.00" routeLength="78.21" waitSteps="0" rerouteNo="1" devices="tripinfo_68737_68737_381 hbefa_68737_68737_381" vType="DEFAULT_VEHTYPE" vaporized="">
        <emissions CO_abs="322.556359" CO2_abs="25487.908184" HC_abs="8.544614" PMx_abs="2.820661" NOx_abs="51.762034" fuel_abs="10.161632"/>
    </tripinfo>
    <tripinfo id="103637_103637_397" depart="27000.00" departLane="145474196#1_0" departPos="5.10" departSpeed="0.00" departDelay="0.00" arrival="27041.00" arrivalLane="150039002#2_1" arrivalPos="249.40" arrivalSpeed="12.79" duration="41.00" routeLength="361.28" waitSteps="2" rerouteNo="1" devices="tripinfo_103637_103637_397 hbefa_103637_103637_397" vType="DEFAULT_VEHTYPE" vaporized="">
        <emissions CO_abs="999.815873" CO2_abs="88107.373865" HC_abs="26.407712" PMx_abs="9.232916" NOx_abs="178.297408" fuel_abs="35.127059"/>
    </tripinfo>
    <tripinfo id="244420_244420_453" depart="27015.00" departLane="-165515969#3_0" departPos="5.10" departSpeed="0.00" departDelay="0.00" arrival="27042.00" arrivalLane="-165511531#0_0" arrivalPos="53.73" arrivalSpeed="13.80" duration="27.00" routeLength="345.81" waitSteps="0" rerouteNo="2" devices="tripinfo_244420_244420_453 hbefa_244420_244420_453" vType="DEFAULT_VEHTYPE" vaporized="">
        <emissions CO_abs="2494.979049" CO2_abs="143425.547852" HC_abs="49.342694" PMx_abs="19.568165" NOx_abs="323.474556" fuel_abs="57.181588"/>
    </tripinfo>
    <tripinfo id="224931_224931_449" depart="27026.00" departLane="-28523795_0" departPos="5.10" departSpeed="0.00" departDelay="0.00" arrival="27043.00" arrivalLane="-28523795_0" arrivalPos="192.02" arrivalSpeed="12.71" duration="17.00" routeLength="186.92" waitSteps="0" rerouteNo="1" devices="tripinfo_224931_224931_449 hbefa_224931_224931_449" vType="DEFAULT_VEHTYPE" vaporized="">
        <emissions CO_abs="515.784694" CO2_abs="42499.868230" HC_abs="12.914393" PMx_abs="4.792134" NOx_abs="87.770544" fuel_abs="16.944045"/>
    </tripinfo>
    <tripinfo id="197472_197472_436" depart="27006.00" departLane="23800191#2_0" departPos="5.10" departSpeed="0.00" departDelay="6.00" arrival="27043.00" arrivalLane="130875842_0" arrivalPos="81.21" arrivalSpeed="13.33" duration="37.00" routeLength="373.11" waitSteps="0" rerouteNo="1" devices="tripinfo_197472_197472_436 hbefa_197472_197472_436" vType="DEFAULT_VEHTYPE" vaporized="">
        <emissions CO_abs="1032.984751" CO2_abs="88028.953725" HC_abs="26.591207" PMx_abs="9.698792" NOx_abs="180.130300" fuel_abs="35.095791"/>
    </tripinfo>
    <tripinfo id="212327_212327_442" depart="27014.00" departLane="198147972_0" departPos="5.10" departSpeed="0.00" departDelay="0.00" arrival="27043.00" arrivalLane="4353628#1_0" arrivalPos="68.95" arrivalSpeed="13.86" duration="29.00" routeLength="339.08" waitSteps="0" rerouteNo="1" devices="tripinfo_212327_212327_442 hbefa_212327_212327_442" vType="DEFAULT_VEHTYPE" vaporized="">
        <emissions CO_abs="534.380359" CO2_abs="59121.453954" HC_abs="16.089951" PMx_abs="5.411977" NOx_abs="115.143413" fuel_abs="23.570824"/>
    </tripinfo>
    <tripinfo id="101376_101376_396" depart="27003.00" departLane="23471158#0_0" departPos="5.10" departSpeed="0.00" departDelay="3.00" arrival="27044.00" arrivalLane="32856811#2_0" arrivalPos="144.91" arrivalSpeed="12.82" duration="41.00" routeLength="664.02" waitSteps="0" rerouteNo="1" devices="tripinfo_101376_101376_396 hbefa_101376_101376_396" vType="DEFAULT_VEHTYPE" vaporized="">
        <emissions CO_abs="3072.343434" CO2_abs="189611.612996" HC_abs="61.976416" PMx_abs="24.341318" NOx_abs="420.346785" fuel_abs="75.595298"/>
    </tripinfo>
    <tripinfo id="101768_101768_396" depart="27000.00" departLane="23493181#0_0" departPos="5.10" departSpeed="0.00" departDelay="0.00" arrival="27044.00" arrivalLane="122989592#2_1" arrivalPos="74.34" arrivalSpeed="7.81" duration="44.00" routeLength="323.96" waitSteps="0" rerouteNo="1" devices="tripinfo_101768_101768_396 hbefa_101768_101768_396" vType="DEFAULT_VEHTYPE" vaporized="">
        <emissions CO_abs="667.198839" CO2_abs="69584.958127" HC_abs="20.577083" PMx_abs="6.725961" NOx_abs="134.911351" fuel_abs="27.742448"/>
    </tripinfo>
    <tripinfo id="211099_211099_442" depart="27013.00" departLane="166155712#0_0" departPos="5.10" departSpeed="0.00" departDelay="0.00" arrival="27044.00" arrivalLane="33469672_0" arrivalPos="142.78" arrivalSpeed="12.86" duration="31.00" routeLength="317.06" waitSteps="0" rerouteNo="1" devices="tripinfo_211099_211099_442 hbefa_211099_211099_442" vType="DEFAULT_VEHTYPE" vaporized="">
        <emissions CO_abs="849.597649" CO2_abs="77663.925088" HC_abs="22.656608" PMx_abs="8.301035" NOx_abs="157.086696" fuel_abs="30.963418"/>
    </tripinfo>
    <tripinfo id="162999_162999_422" depart="27000.00" departLane="150031230#2_0" departPos="5.10" departSpeed="0.00" departDelay="0.00" arrival="27045.00" arrivalLane="129833341#0_1" arrivalPos="129.85" arrivalSpeed="13.41" duration="45.00" routeLength="303.50" waitSteps="12" rerouteNo="1" devices="tripinfo_162999_162999_422 hbefa_162999_162999_422" vType="DEFAULT_VEHTYPE" vaporized="">
        <emissions CO_abs="1023.244568" CO2_abs="82771.001346" HC_abs="27.104068" PMx_abs="8.906572" NOx_abs="167.684977" fuel_abs="32.999525"/>
    </tripinfo>
    <tripinfo id="245947_245947_454" depart="27016.00" departLane="-83823403#2_0" departPos="5.10" departSpeed="0.00" departDelay="0.00" arrival="27045.00" arrivalLane="23015533_0" arrivalPos="110.79" arrivalSpeed="13.52" duration="29.00" routeLength="290.56" waitSteps="0" rerouteNo="1" devices="tripinfo_245947_245947_454 hbefa_245947_245947_454" vType="DEFAULT_VEHTYPE" vaporized="">
        <emissions CO_abs="875.853131" CO2_abs="66794.445832" HC_abs="21.134275" PMx_abs="7.565236" NOx_abs="139.397609" fuel_abs="26.629916"/>
    </tripinfo>
    <tripinfo id="84113_84113_390" depart="27000.00" departLane="150031205#0_0" departPos="5.10" departSpeed="0.00" departDelay="0.00" arrival="27045.00" arrivalLane="23471158#10_0" arrivalPos="144.68" arrivalSpeed="23.56" duration="45.00" routeLength="456.75" waitSteps="0" rerouteNo="1" devices="tripinfo_84113_84113_390 hbefa_84113_84113_390" vType="DEFAULT_VEHTYPE" vaporized="">
        <emissions CO_abs="2059.396106" CO2_abs="138454.328372" HC_abs="44.951262" PMx_abs="17.118268" NOx_abs="299.434365" fuel_abs="55.199627"/>
    </tripinfo>
    <tripinfo id="244003_244003_453" depart="27029.00" departLane="-28523795_0" departPos="5.10" departSpeed="0.00" departDelay="0.00" arrival="27046.00" arrivalLane="-28523795_0" arrivalPos="192.02" arrivalSpeed="13.30" duration="17.00" routeLength="186.92" waitSteps="0" rerouteNo="1" devices="tripinfo_244003_244003_453 hbefa_244003_244003_453" vType="DEFAULT_VEHTYPE" vaporized="">
        <emissions CO_abs="547.092022" CO2_abs="44573.649785" HC_abs="13.594748" PMx_abs="4.905666" NOx_abs="92.013131" fuel_abs="17.770830"/>
    </tripinfo>
    <tripinfo id="140107_140107_414" depart="27000.00" departLane="154755117_0" departPos="5.10" departSpeed="0.00" departDelay="0.00" arrival="27046.00" arrivalLane="23800191#0_0" arrivalPos="143.94" arrivalSpeed="13.34" duration="46.00" routeLength="212.88" waitSteps="18" rerouteNo="1" devices="tripinfo_140107_140107_414 hbefa_140107_140107_414" vType="DEFAULT_VEHTYPE" vaporized="">
        <emissions CO_abs="730.239715" CO2_abs="64141.604660" HC_abs="22.437330" PMx_abs="6.110161" NOx_abs="123.395154" fuel_abs="25.572267"/>
    </tripinfo>
    <tripinfo id="95606_95606_394" depart="27000.00" departLane="8225148_0" departPos="5.10" departSpeed="0.00" departDelay="0.00" arrival="27047.00" arrivalLane="145261451_0" arrivalPos="86.92" arrivalSpeed="12.66" duration="47.00" routeLength="515.94" waitSteps="0" rerouteNo="1" devices="tripinfo_95606_95606_394 hbefa_95606_95606_394" vType="DEFAULT_VEHTYPE" vaporized="">
        <emissions CO_abs="1553.034193" CO2_abs="110870.228385" HC_abs="35.345807" PMx_abs="13.676733" NOx_abs="237.165248" fuel_abs="44.202254"/>
    </tripinfo>
    <tripinfo id="227630_227630_450" depart="27017.00" departLane="166155712#0_0" departPos="5.10" departSpeed="0.00" departDelay="0.00" arrival="27047.00" arrivalLane="33469672_0" arrivalPos="142.78" arrivalSpeed="13.31" duration="30.00" routeLength="317.06" waitSteps="0" rerouteNo="1" devices="tripinfo_227630_227630_450 hbefa_227630_227630_450" vType="DEFAULT_VEHTYPE" vaporized="">
        <emissions CO_abs="944.706960" CO2_abs="81644.394274" HC_abs="24.231651" PMx_abs="8.828128" NOx_abs="166.942478" fuel_abs="32.550369"/>
    </tripinfo>
    <tripinfo id="221885_221885_448" depart="27017.00" departLane="-175607927#0_0" departPos="5.10" departSpeed="0.00" departDelay="0.00" arrival="27047.00" arrivalLane="-29214406_0" arrivalPos="179.38" arrivalSpeed="13.75" duration="30.00" routeLength="317.06" waitSteps="0" rerouteNo="1" devices="tripinfo_221885_221885_448 hbefa_221885_221885_448" vType="DEFAULT_VEHTYPE" vaporized="">