<?xml version="1.0" encoding="UTF-8"?>

<!-- generated on Tue Apr 15 18:01:51 2014 by SUMO sumo Version 0.19.0
<?xml version="1.0" encoding="UTF-8"?>

<configuration xmlns:xsi="http://www.w3.org/2001/XMLSchema-instance" xsi:noNamespaceSchemaLocation="http://sumo-sim.org/xsd/sumoConfiguration.xsd">

    <input>
        <net-file value="data/map.net.xml"/>
        <route-files value="data/map.rou.xml"/>
    </input>

    <output>
        <tripinfo-output value="data/maptripinfo.out.xml"/>
        <save-state.prefix value="data/state"/>
    </output>

    <time>
        <begin value="27000"/>
        <end value="27900"/>
    </time>

    <processing>
        <route-steps value="200"/>
        <scale value="0.8"/>
        <time-to-teleport value="300"/>
        <lanechange.allow-swap value="true"/>
    </processing>

    <report>
        <verbose value="true"/>
        <no-warnings value="true"/>
        <no-step-log value="true"/>
    </report>

    <emissions>
        <device.hbefa.probability value="1"/>
    </emissions>

    <traci_server>
        <remote-port value="8814"/>
    </traci_server>

</configuration>
-->

<tripinfos>
    <tripinfo id="136022_136022_411" depart="27003.00" departLane="23800191#2_0" departPos="5.10" departSpeed="0.00" departDelay="3.00" arrival="27009.00" arrivalLane="23800191#2_0" arrivalPos="38.41" arrivalSpeed="9.04" duration="6.00" routeLength="33.31" waitSteps="0" rerouteNo="0" devices="tripinfo_136022_136022_411 hbefa_136022_136022_411" vType="DEFAULT_VEHTYPE" vaporized="">
        <emissions CO_abs="185.360283" CO2_abs="15770.136816" HC_abs="5.217217" PMx_abs="1.592998" NOx_abs="31.263366" fuel_abs="6.287308"/>
    </tripinfo>
    <tripinfo id="182087_182087_431" depart="27000.00" departLane="4380937#2_0" departPos="5.10" departSpeed="0.00" departDelay="0.00" arrival="27011.00" arrivalLane="4380937#3_0" arrivalPos="72.76" arrivalSpeed="13.21" duration="11.00" routeLength="67.66" waitSteps="0" rerouteNo="1" devices="tripinfo_182087_182087_431 hbefa_182087_182087_431" vType="DEFAULT_VEHTYPE" vaporized="">
        <emissions CO_abs="467.042524" CO2_abs="35540.168416" HC_abs="11.213918" PMx_abs="4.229650" NOx_abs="74.548515" fuel_abs="14.169318"/>
    </tripinfo>
    <tripinfo id="72912_72912_384" depart="27003.00" departLane="9207803_0" departPos="5.10" departSpeed="0.00" departDelay="3.00" arrival="27014.00" arrivalLane="9207803_0" arrivalPos="69.23" arrivalSpeed="7.55" duration="11.00" routeLength="64.13" waitSteps="0" rerouteNo="0" devices="tripinfo_72912_72912_384 hbefa_72912_72912_384" vType="DEFAULT_VEHTYPE" vaporized="">
        <emissions CO_abs="176.453296" CO2_abs="19997.688348" HC_abs="6.085055" PMx_abs="1.783051" NOx_abs="37.614636" fuel_abs="7.972768"/>
    </tripinfo>
    <tripinfo id="105435_105435_398" depart="27003.00" departLane="145474196#1_0" departPos="5.10" departSpeed="0.00" departDelay="3.00" arrival="27015.00" arrivalLane="145474196#1_0" arrivalPos="94.12" arrivalSpeed="10.81" duration="12.00" routeLength="89.02" waitSteps="0" rerouteNo="0" devices="tripinfo_105435_105435_398 hbefa_105435_105435_398" vType="DEFAULT_VEHTYPE" vaporized="">
        <emissions CO_abs="659.325428" CO2_abs="44936.328774" HC_abs="14.999346" PMx_abs="5.577147" NOx_abs="96.350046" fuel_abs="17.915418"/>
    </tripinfo>
    <tripinfo id="92380_92380_392" depart="27000.00" departLane="-154755073#3_0" departPos="5.10" departSpeed="0.00" departDelay="0.00" arrival="27015.00" arrivalLane="-154755073#3_0" arrivalPos="102.52" arrivalSpeed="7.19" duration="15.00" routeLength="97.42" waitSteps="0" rerouteNo="0" devices="tripinfo_92380_92380_392 hbefa_92380_92380_392" vType="DEFAULT_VEHTYPE" vaporized="">
        <emissions CO_abs="248.366094" CO2_abs="22944.684833" HC_abs="7.225277" PMx_abs="2.407448" NOx_abs="45.252135" fuel_abs="9.147690"/>
    </tripinfo>
    <tripinfo id="251564_251564_457" depart="27002.00" departLane="51113317_0" departPos="5.10" departSpeed="0.00" departDelay="0.00" arrival="27015.00" arrivalLane="51113317_0" arrivalPos="125.08" arrivalSpeed="12.99" duration="13.00" routeLength="119.98" waitSteps="0" rerouteNo="0" devices="tripinfo_251564_251564_457 hbefa_251564_251564_457" vType="DEFAULT_VEHTYPE" vaporized="">
        <emissions CO_abs="456.805393" CO2_abs="39387.846885" HC_abs="11.849823" PMx_abs="4.283902" NOx_abs="80.307273" fuel_abs="15.703330"/>
    </tripinfo>
    <tripinfo id="84049_84049_390" depart="27006.00" departLane="9207803_0" departPos="5.10" departSpeed="0.00" departDelay="6.00" arrival="27016.00" arrivalLane="9207803_0" arrivalPos="69.23" arrivalSpeed="7.66" duration="10.00" routeLength="64.13" waitSteps="0" rerouteNo="0" devices="tripinfo_84049_84049_390 hbefa_84049_84049_390" vType="DEFAULT_VEHTYPE" vaporized="">
        <emissions CO_abs="183.033699" CO2_abs="17526.856205" HC_abs="5.532853" PMx_abs="1.675250" NOx_abs="33.999891" fuel_abs="6.987686"/>
    </tripinfo>
    <tripinfo id="105964_105964_399" depart="27007.00" departLane="145474196#1_0" departPos="5.10" departSpeed="0.00" departDelay="7.00" arrival="27017.00" arrivalLane="145474196#1_0" arrivalPos="94.12" arrivalSpeed="12.84" duration="10.00" routeLength="89.02" waitSteps="0" rerouteNo="0" devices="tripinfo_105964_105964_399 hbefa_105964_105964_399" vType="DEFAULT_VEHTYPE" vaporized="">
        <emissions CO_abs="664.136818" CO2_abs="42648.558682" HC_abs="14.346755" PMx_abs="5.641663" NOx_abs="93.510807" fuel_abs="17.003321"/>
    </tripinfo>
    <tripinfo id="232041_232041_451" depart="27002.00" departLane="28523795_0" departPos="5.10" departSpeed="0.00" departDelay="0.00" arrival="27019.00" arrivalLane="28523795_0" arrivalPos="192.02" arrivalSpeed="12.72" duration="17.00" routeLength="186.92" waitSteps="0" rerouteNo="0" devices="tripinfo_232041_232041_451 hbefa_232041_232041_451" vType="DEFAULT_VEHTYPE" vaporized="">
        <emissions CO_abs="507.295407" CO2_abs="42803.198574" HC_abs="12.906551" PMx_abs="4.599519" NOx_abs="87.635928" fuel_abs="17.064979"/>
    </tripinfo>
    <tripinfo id="219187_219187_446" depart="27000.00" departLane="144935690_0" departPos="5.10" departSpeed="0.00" departDelay="0.00" arrival="27021.00" arrivalLane="25997632_0" arrivalPos="136.14" arrivalSpeed="13.56" duration="21.00" routeLength="131.04" waitSteps="0" rerouteNo="2" devices="tripinfo_219187_219187_446 hbefa_219187_219187_446" vType="DEFAULT_VEHTYPE" vaporized="">
        <emissions CO_abs="597.267086" CO2_abs="50299.398496" HC_abs="15.110265" PMx_abs="5.510532" NOx_abs="103.299261" fuel_abs="20.053600"/>
    </tripinfo>
    <tripinfo id="135880_135880_411" depart="27000.00" departLane="150039002#2_0" departPos="5.10" departSpeed="0.00" departDelay="0.00" arrival="27022.00" arrivalLane="150039002#2_0" arrivalPos="249.40" arrivalSpeed="13.49" duration="22.00" routeLength="244.30" waitSteps="0" rerouteNo="0" devices="tripinfo_135880_135880_411 hbefa_135880_135880_411" vType="DEFAULT_VEHTYPE" vaporized="">
        <emissions CO_abs="553.424151" CO2_abs="59242.094673" HC_abs="16.232754" PMx_abs="5.797908" NOx_abs="116.643059" fuel_abs="23.618921"/>
    </tripinfo>
    <tripinfo id="206737_206737_440" depart="27007.00" departLane="-29206900_0" departPos="5.10" departSpeed="0.00" departDelay="0.00" arrival="27022.00" arrivalLane="29207110_0" arrivalPos="28.94" arrivalSpeed="13.46" duration="15.00" routeLength="23.84" waitSteps="0" rerouteNo="1" devices="tripinfo_206737_206737_440 hbefa_206737_206737_440" vType="DEFAULT_VEHTYPE" vaporized="">
        <emissions CO_abs="552.157973" CO2_abs="40962.425262" HC_abs="13.392431" PMx_abs="4.845894" NOx_abs="85.786958" fuel_abs="16.331085"/>
    </tripinfo>
    <tripinfo id="110327_110327_401" depart="27000.00" departLane="53212166#0_0" departPos="5.10" departSpeed="0.00" departDelay="0.00" arrival="27023.00" arrivalLane="28542995#2_2" arrivalPos="61.74" arrivalSpeed="13.77" duration="23.00" routeLength="56.64" waitSteps="0" rerouteNo="3" devices="tripinfo_110327_110327_401 hbefa_110327_110327_401" vType="DEFAULT_VEHTYPE" vaporized="">
        <emissions CO_abs="538.555308" CO2_abs="53120.166866" HC_abs="15.201946" PMx_abs="5.269668" NOx_abs="105.361151" fuel_abs="21.178198"/>
    </tripinfo>
    <tripinfo id="225242_225242_449" depart="27000.00" departLane="154755124_0" departPos="5.10" departSpeed="0.00" departDelay="0.00" arrival="27024.00" arrivalLane="4380937#3_1" arrivalPos="72.76" arrivalSpeed="12.66" duration="24.00" routeLength="67.66" waitSteps="0" rerouteNo="2" devices="tripinfo_225242_225242_449 hbefa_225242_225242_449" vType="DEFAULT_VEHTYPE" vaporized="">
        <emissions CO_abs="735.493090" CO2_abs="53619.488986" HC_abs="17.607657" PMx_abs="6.421449" NOx_abs="112.836513" fuel_abs="21.377260"/>
    </tripinfo>
    <tripinfo id="148867_148867_417" depart="27006.00" departLane="3065455_0" departPos="5.10" departSpeed="0.00" departDelay="6.00" arrival="27024.00" arrivalLane="23800191#0_0" arrivalPos="143.94" arrivalSpeed="13.10" duration="18.00" routeLength="138.84" waitSteps="0" rerouteNo="1" devices="tripinfo_148867_148867_417 hbefa_148867_148867_417" vType="DEFAULT_VEHTYPE" vaporized="">
        <emissions CO_abs="579.145752" CO2_abs="45243.143565" HC_abs="14.016454" PMx_abs="5.242122" NOx_abs="94.514842" fuel_abs="18.037747"/>
    </tripinfo>
    <tripinfo id="141415_141415_415" depart="27003.00" departLane="150039002#2_0" departPos="5.10" departSpeed="0.00" departDelay="3.00" arrival="27025.00" arrivalLane="150039002#2_0" arrivalPos="249.40" arrivalSpeed="13.08" duration="22.00" routeLength="244.30" waitSteps="0" rerouteNo="0" devices="tripinfo_141415_141415_415 hbefa_141415_141415_415" vType="DEFAULT_VEHTYPE" vaporized="">
        <emissions CO_abs="525.708632" CO2_abs="51579.857311" HC_abs="14.623760" PMx_abs="5.249997" NOx_abs="102.971526" fuel_abs="20.564102"/>
    </tripinfo>
    <tripinfo id="75851_75851_386" depart="27002.00" departLane="28542995#2_0" departPos="5.10" departSpeed="0.00" departDelay="2.00" arrival="27025.00" arrivalLane="23493181#0_0" arrivalPos="88.20" arrivalSpeed="10.69" duration="23.00" routeLength="83.10" waitSteps="0" rerouteNo="1" devices="tripinfo_75851_75851_386 hbefa_75851_75851_386" vType="DEFAULT_VEHTYPE" vaporized="">
        <emissions CO_abs="620.986752" CO2_abs="46389.011465" HC_abs="15.461547" PMx_abs="5.432483" NOx_abs="96.368346" fuel_abs="18.494578"/>
    </tripinfo>
    <tripinfo id="225541_225541_450" depart="27000.00" departLane="9207803_0" departPos="5.10" departSpeed="0.00" departDelay="0.00" arrival="27025.00" arrivalLane="154755073#3_0" arrivalPos="102.52" arrivalSpeed="7.65" duration="25.00" routeLength="97.42" waitSteps="0" rerouteNo="1" devices="tripinfo_225541_225541_450 hbefa_225541_225541_450" vType="DEFAULT_VEHTYPE" vaporized="">
        <emissions CO_abs="311.782576" CO2_abs="35147.069776" HC_abs="10.520252" PMx_abs="3.173812" NOx_abs="66.502847" fuel_abs="14.012592"/>
    </tripinfo>
    <tripinfo id="136596_136596_411" depart="27003.00" departLane="131651824_0" departPos="5.10" departSpeed="0.00" departDelay="3.00" arrival="27027.00" arrivalLane="4400211#0_0" arrivalPos="197.56" arrivalSpeed="12.69" duration="24.00" routeLength="192.46" waitSteps="0" rerouteNo="1" devices="tripinfo_136596_136596_411 hbefa_136596_136596_411" vType="DEFAULT_VEHTYPE" vaporized="">
        <emissions CO_abs="745.495967" CO2_abs="60038.168807" HC_abs="18.446582" PMx_abs="6.670177" NOx_abs="124.136030" fuel_abs="23.936296"/>
    </tripinfo>
    <tripinfo id="220353_220353_447" depart="27001.00" departLane="-165515969#3_0" departPos="5.10" departSpeed="0.00" departDelay="0.00" arrival="27027.00" arrivalLane="-165511531#0_0" arrivalPos="53.73" arrivalSpeed="13.40" duration="26.00" routeLength="48.63" waitSteps="0" rerouteNo="2" devices="tripinfo_220353_220353_447 hbefa_220353_220353_447" vType="DEFAULT_VEHTYPE" vaporized="">
        <emissions CO_abs="2457.783959" CO2_abs="142995.838146" HC_abs="48.820496" PMx_abs="19.454177" NOx_abs="321.878935" fuel_abs="57.010268"/>
    </tripinfo>
    <tripinfo id="134089_134089_411" depart="27000.00" departLane="23800191#2_0" departPos="5.10" departSpeed="0.00" departDelay="0.00" arrival="27028.00" arrivalLane="4400211#0_0" arrivalPos="197.56" arrivalSpeed="12.87" duration="28.00" routeLength="192.46" waitSteps="0" rerouteNo="2" devices="tripinfo_134089_134089_411 hbefa_134089_134089_411" vType="DEFAULT_VEHTYPE" vaporized="">
        <emissions CO_abs="847.993529" CO2_abs="68280.487691" HC_abs="20.983908" PMx_abs="7.672146" NOx_abs="141.415323" fuel_abs="27.222381"/>
    </tripinfo>
    <tripinfo id="162999_162999_422" depart="27000.00" departLane="150031230#2_0" departPos="5.10" departSpeed="0.00" departDelay="0.00" arrival="27029.00" arrivalLane="129833341#0_1" arrivalPos="129.85" arrivalSpeed="13.55" duration="29.00" routeLength="124.75" waitSteps="0" rerouteNo="1" devices="tripinfo_162999_162999_422 hbefa_162999_162999_422" vType="DEFAULT_VEHTYPE" vaporized="">
        <emissions CO_abs="918.541014" CO2_abs="75402.630858" HC_abs="22.852308" PMx_abs="8.452172" NOx_abs="155.770893" fuel_abs="30.061872"/>
    </tripinfo>
    <tripinfo id="84113_84113_390" depart="27000.00" departLane="150031205#0_0" departPos="5.10" departSpeed="0.00" departDelay="0.00" arrival="27029.00" arrivalLane="23471158#10_0" arrivalPos="144.68" arrivalSpeed="27.14" duration="29.00" routeLength="139.58" waitSteps="1" rerouteNo="3" devices="tripinfo_84113_84113_390 hbefa_84113_84113_390" vType="DEFAULT_VEHTYPE" vaporized="">
        <emissions CO_abs="2394.252245" CO2_abs="143268.852709" HC_abs="47.265187" PMx_abs="17.798681" NOx_abs="317.248958" fuel_abs="57.119177"/>
    </tripinfo>
    <tripinfo id="118681_118681_405" depart="27000.00" departLane="23471158#6_0" departPos="5.10" departSpeed="0.00" departDelay="0.00" arrival="27030.00" arrivalLane="32856811#2_0" arrivalPos="144.91" arrivalSpeed="13.32" duration="30.00" routeLength="139.81" waitSteps="0" rerouteNo="2" devices="tripinfo_118681_118681_405 hbefa_118681_118681_405" vType="DEFAULT_VEHTYPE" vaporized="">
        <emissions CO_abs="2066.185527" CO2_abs="128367.417198" HC_abs="42.191162" PMx_abs="16.289632" NOx_abs="283.256884" fuel_abs="51.178154"/>
    </tripinfo>
    <tripinfo id="188835_188835_434" depart="27006.00" departLane="187965762#1_0" departPos="5.10" departSpeed="0.00" departDelay="6.00" arrival="27031.00" arrivalLane="187965762#2_0" arrivalPos="85.18" arrivalSpeed="7.69" duration="25.00" routeLength="80.08" waitSteps="0" rerouteNo="1" devices="tripinfo_188835_188835_434 hbefa_188835_188835_434" vType="DEFAULT_VEHTYPE" vaporized="">
        <emissions CO_abs="203.280306" CO2_abs="26300.646601" HC_abs="7.682651" PMx_abs="2.129030" NOx_abs="48.402571" fuel_abs="10.485661"/>
    </tripinfo>
    <tripinfo id="187318_187318_433" depart="27013.00" departLane="-83823403#2_0" departPos="5.10" departSpeed="0.00" departDelay="0.00" arrival="27031.00" arrivalLane="-83823403#2_0" arrivalPos="184.87" arrivalSpeed="10.66" duration="18.00" routeLength="179.77" waitSteps="0" rerouteNo="0" devices="tripinfo_187318_187318_433 hbefa_187318_187318_433" vType="DEFAULT_VEHTYPE" vaporized="">
        <emissions CO_abs="632.023195" CO2_abs="50946.100398" HC_abs="15.658576" PMx_abs="5.821807" NOx_abs="105.650219" fuel_abs="20.311427"/>
    </tripinfo>
    <tripinfo id="122617_122617_406" depart="27000.00" departLane="131651824_0" departPos="5.10" departSpeed="0.00" departDelay="0.00" arrival="27031.00" arrivalLane="130875842_0" arrivalPos="81.21" arrivalSpeed="13.11" duration="31.00" routeLength="76.11" waitSteps="0" rerouteNo="2" devices="tripinfo_122617_122617_406 hbefa_122617_122617_406" vType="DEFAULT_VEHTYPE" vaporized="">
        <emissions CO_abs="917.867646" CO2_abs="77867.537516" HC_abs="23.329403" PMx_abs="8.520137" NOx_abs="159.750424" fuel_abs="31.044593"/>
    </tripinfo>
    <tripinfo id="104726_104726_398" depart="27000.00" departLane="23471158#5_0" departPos="5.10" departSpeed="0.00" departDelay="0.00" arrival="27032.00" arrivalLane="32856811#2_0" arrivalPos="144.91" arrivalSpeed="13.26" duration="32.00" routeLength="139.81" waitSteps="0" rerouteNo="3" devices="tripinfo_104726_104726_398 hbefa_104726_104726_398" vType="DEFAULT_VEHTYPE" vaporized="">
        <emissions CO_abs="1980.651278" CO2_abs="128750.231098" HC_abs="41.413939" PMx_abs="15.205860" NOx_abs="279.297393" fuel_abs="51.330791"/>
    </tripinfo>
    <tripinfo id="212444_212444_443" depart="27003.00" departLane="166155712#0_0" departPos="5.10" departSpeed="0.00" departDelay="0.00" arrival="27033.00" arrivalLane="33469672_0" arrivalPos="142.78" arrivalSpeed="13.37" duration="30.00" routeLength="137.68" waitSteps="0" rerouteNo="1" devices="tripinfo_212444_212444_443 hbefa_212444_212444_443" vType="DEFAULT_VEHTYPE" vaporized="">
        <emissions CO_abs="1010.596361" CO2_abs="80218.939519" HC_abs="24.484062" PMx_abs="9.305946" NOx_abs="167.530705" fuel_abs="31.982061"/>
    </tripinfo>
    <tripinfo id="103637_103637_397" depart="27000.00" departLane="145474196#1_0" departPos="5.10" departSpeed="0.00" departDelay="0.00" arrival="27034.00" arrivalLane="150039002#2_1" arrivalPos="249.40" arrivalSpeed="13.10" duration="34.00" routeLength="361.28" waitSteps="0" rerouteNo="0" devices="tripinfo_103637_103637_397 hbefa_103637_103637_397" vType="DEFAULT_VEHTYPE" vaporized="">
        <emissions CO_abs="931.067878" CO2_abs="80507.638057" HC_abs="23.928046" PMx_abs="8.693593" NOx_abs="164.481970" fuel_abs="32.097162"/>
    </tripinfo>
    <tripinfo id="208001_208001_441" depart="27001.00" departLane="-83823403#2_0" departPos="5.10" departSpeed="0.00" departDelay="0.00" arrival="27034.00" arrivalLane="23015529#0_0" arrivalPos="184.87" arrivalSpeed="13.22" duration="33.00" routeLength="179.77" waitSteps="0" rerouteNo="1" devices="tripinfo_208001_208001_441 hbefa_208001_208001_441" vType="DEFAULT_VEHTYPE" vaporized="">
        <emissions CO_abs="906.062562" CO2_abs="81654.214551" HC_abs="23.770189" PMx_abs="8.711701" NOx_abs="165.674525" fuel_abs="32.554286"/>
    </tripinfo>
    <tripinfo id="103310_103310_397" depart="27000.00" departLane="83703645_0" departPos="5.10" departSpeed="0.00" departDelay="0.00" arrival="27035.00" arrivalLane="23493177#0_0" arrivalPos="166.52" arrivalSpeed="7.74" duration="35.00" routeLength="161.42" waitSteps="0" rerouteNo="2" devices="tripinfo_103310_103310_397 hbefa_103310_103310_397" vType="DEFAULT_VEHTYPE" vaporized="">
        <emissions CO_abs="535.047796" CO2_abs="50431.268004" HC_abs="15.310750" PMx_abs="5.033247" NOx_abs="99.711956" fuel_abs="20.106168"/>
    </tripinfo>
    <tripinfo id="217202_217202_446" depart="27007.00" departLane="-83823403#2_0" departPos="5.10" departSpeed="0.00" departDelay="0.00" arrival="27035.00" arrivalLane="23015533_0" arrivalPos="110.79" arrivalSpeed="13.43" duration="28.00" routeLength="105.69" waitSteps="0" rerouteNo="1" devices="tripinfo_217202_217202_446 hbefa_217202_217202_446" vType="DEFAULT_VEHTYPE" vaporized="">
        <emissions CO_abs="935.765459" CO2_abs="70177.487796" HC_abs="22.143257" PMx_abs="8.202015" NOx_abs="147.674393" fuel_abs="27.978684"/>
    </tripinfo>
    <tripinfo id="238887_238887_451" depart="27010.00" departLane="-83823403#2_0" departPos="5.10" departSpeed="0.00" departDelay="0.00" arrival="27038.00" arrivalLane="23015533_0" arrivalPos="110.79" arrivalSpeed="12.98" duration="28.00" routeLength="105.69" waitSteps="0" rerouteNo="1" devices="tripinfo_238887_238887_451 hbefa_238887_238887_451" vType="DEFAULT_VEHTYPE" vaporized="">
        <emissions CO_abs="817.402354" CO2_abs="71144.179902" HC_abs="21.268808" PMx_abs="7.513799" NOx_abs="144.631100" fuel_abs="28.364093"/>
    </tripinfo>
    <tripinfo id="108705_108705_400" depart="27000.00" departLane="36454807#3_0" departPos="5.10" departSpeed="0.00" departDelay="0.00" arrival="27039.00" arrivalLane="32856811#2_0" arrivalPos="144.91" arrivalSpeed="13.48" duration="39.00" routeLength="139.81" waitSteps="0" rerouteNo="4" devices="tripinfo_108705_108705_400 hbefa_108705_108705_400" vType="DEFAULT_VEHTYPE" vaporized="">
        <emissions CO_abs="2846.314900" CO2_abs="171761.158872" HC_abs="56.942969" PMx_abs="22.628871" NOx_abs="382.719291" fuel_abs="68.478595"/>
    </tripinfo>
    <tripinfo id="218769_218769_446" depart="27003.00" departLane="-55940134_0" departPos="5.10" departSpeed="0.00" departDelay="3.00" arrival="27040.00" arrivalLane="-144935692#1_1" arrivalPos="103.61" arrivalSpeed="12.83" duration="37.00" routeLength="98.51" waitSteps="0" rerouteNo="3" devices="tripinfo_218769_218769_446 hbefa_218769_218769_446" vType="DEFAULT_VEHTYPE" vaporized="">
        <emissions CO_abs="650.411326" CO2_abs="68934.851145" HC_abs="18.797106" PMx_abs="6.709470" NOx_abs="136.084276" fuel_abs="27.483277"/>
    </tripinfo>
    <tripinfo id="154499_154499_420" depart="27000.00" departLane="28542995#0_0" departPos="5.10" departSpeed="0.00" departDelay="0.00" arrival="27040.00" arrivalLane="23493260#4_1" arrivalPos="126.60" arrivalSpeed="13.37" duration="40.00" routeLength="121.50" waitSteps="0" rerouteNo="4" devices="tripinfo_154499_154499_420 hbefa_154499_154499_420" vType="DEFAULT_VEHTYPE" vaporized="">
        <emissions CO_abs="1020.981485" CO2_abs="90927.811586" HC_abs="26.950198" PMx_abs="9.501666" NOx_abs="184.030331" fuel_abs="36.251525"/>
    </tripinfo>
    <tripinfo id="171544_171544_426" depart="27000.00" departLane="187965762#1_0" departPos="5.10" departSpeed="0.00" departDelay="0.00" arrival="27040.00" arrivalLane="23800191#0_0" arrivalPos="143.94" arrivalSpeed="12.88" duration="40.00" routeLength="138.84" waitSteps="0" rerouteNo="3" devices="tripinfo_171544_171544_426 hbefa_171544_171544_426" vType="DEFAULT_VEHTYPE" vaporized="">
        <emissions CO_abs="625.435185" CO2_abs="69521.102256" HC_abs="19.443658" PMx_abs="6.567715" NOx_abs="134.675923" fuel_abs="27.716998"/>
    </tripinfo>
    <tripinfo id="138122_138122_412" depart="27009.00" departLane="131651824_0" departPos="5.10" departSpeed="0.00" departDelay="9.00" arrival="27040.00" arrivalLane="130875842_0" arrivalPos="81.21" arrivalSpeed="12.98" duration="31.00" routeLength="76.11" waitSteps="0" rerouteNo="2" devices="tripinfo_138122_138122_412 hbefa_138122_138122_412" vType="DEFAULT_VEHTYPE" vaporized="">
        <emissions CO_abs="950.627417" CO2_abs="79713.371055" HC_abs="24.007478" PMx_abs="8.633491" NOx_abs="163.636585" fuel_abs="31.780498"/>
    </tripinfo>
    <tripinfo id="244420_244420_453" depart="27015.00" departLane="-165515969#3_0" departPos="5.10" departSpeed="0.00" departDelay="0.00" arrival="27041.00" arrivalLane="-165511531#0_0" arrivalPos="53.73" arrivalSpeed="13.01" duration="26.00" routeLength="48.63" waitSteps="0" rerouteNo="2" devices="tripinfo_244420_244420_453 hbefa_244420_244420_453" vType="DEFAULT_VEHTYPE" vaporized="">
        <emissions CO_abs="2303.136298" CO2_abs="137033.279823" HC_abs="46.134068" PMx_abs="18.083296" NOx_abs="306.060613" fuel_abs="54.633096"/>
    </tripinfo>
    <tripinfo id="184987_184987_431" depart="27000.00" departLane="-186463490#0_0" departPos="5.10" departSpeed="0.00" departDelay="0.00" arrival="27042.00" arrivalLane="-144935692#1_1" arrivalPos="103.61" arrivalSpeed="13.22" duration="42.00" routeLength="98.51" waitSteps="0" rerouteNo="4" devices="tripinfo_184987_184987_431 hbefa_184987_184987_431" vType="DEFAULT_VEHTYPE" vaporized="">
        <emissions CO_abs="568.964982" CO2_abs="75478.756141" HC_abs="19.375558" PMx_abs="6.370059" NOx_abs="143.172254" fuel_abs="30.092235"/>
    </tripinfo>
    <tripinfo id="224931_224931_449" depart="27026.00" departLane="-28523795_0" departPos="5.10" departSpeed="0.00" departDelay="0.00" arrival="27043.00" arrivalLane="-28523795_0" arrivalPos="192.02" arrivalSpeed="13.84" duration="17.00" routeLength="186.92" waitSteps="0" rerouteNo="0" devices="tripinfo_224931_224931_449 hbefa_224931_224931_449" vType="DEFAULT_VEHTYPE" vaporized="">
        <emissions CO_abs="575.089061" CO2_abs="47279.633810" HC_abs="14.390074" PMx_abs="5.205723" NOx_abs="97.422441" fuel_abs="18.849665"/>
    </tripinfo>
    <tripinfo id="211099_211099_442" depart="27013.00" departLane="166155712#0_0" departPos="5.10" departSpeed="0.00" departDelay="0.00" arrival="27043.00" arrivalLane="33469672_0" arrivalPos="142.78" arrivalSpeed="13.07" duration="30.00" routeLength="137.68" waitSteps="0" rerouteNo="1" devices="tripinfo_211099_211099_442 hbefa_211099_211099_442" vType="DEFAULT_VEHTYPE" vaporized="">
        <emissions CO_abs="959.754391" CO2_abs="82314.721290" HC_abs="24.376048" PMx_abs="9.123105" NOx_abs="169.100135" fuel_abs="32.817619"/>
    </tripinfo>
    <tripinfo id="197472_197472_436" depart="27006.00" departLane="23800191#2_0" departPos="5.10" departSpeed="0.00" departDelay="6.00" arrival="27043.00" arrivalLane="130875842_0" arrivalPos="81.21" arrivalSpeed="12.82" duration="37.00" routeLength="76.11" waitSteps="0" rerouteNo="3" devices="tripinfo_197472_197472_436 hbefa_197472_197472_436" vType="DEFAULT_VEHTYPE" vaporized="">
        <emissions CO_abs="1126.449100" CO2_abs="91365.006258" HC_abs="28.080755" PMx_abs="10.071306" NOx_abs="188.505635" fuel_abs="36.425824"/>
    </tripinfo>
    <tripinfo id="212327_212327_442" depart="27014.00" departLane="198147972_0" departPos="5.10" departSpeed="0.00" departDelay="0.00" arrival="27043.00" arrivalLane="4353628#1_0" arrivalPos="68.95" arrivalSpeed="13.74" duration="29.00" routeLength="63.85" waitSteps="0" rerouteNo="3" devices="tripinfo_212327_212327_442 hbefa_212327_212327_442" vType="DEFAULT_VEHTYPE" vaporized="">
        <emissions CO_abs="567.515645" CO2_abs="62301.869426" HC_abs="16.987452" PMx_abs="5.755933" NOx_abs="121.495566" fuel_abs="24.838807"/>
    </tripinfo>
    <tripinfo id="101376_101376_396" depart="27003.00" departLane="23471158#0_0" departPos="5.10" departSpeed="0.00" departDelay="3.00" arrival="27045.00" arrivalLane="32856811#2_0" arrivalPos="144.91" arrivalSpeed="13.04" duration="42.00" routeLength="139.81" waitSteps="0" rerouteNo="3" devices="tripinfo_101376_101376_396 hbefa_101376_101376_396" vType="DEFAULT_VEHTYPE" vaporized="">
        <emissions CO_abs="3034.679595" CO2_abs="190262.257838" HC_abs="61.592599" PMx_abs="23.793313" NOx_abs="419.254584" fuel_abs="75.854712"/>
    </tripinfo>
    <tripinfo id="245947_245947_454" depart="27016.00" departLane="-83823403#2_0" departPos="5.10" departSpeed="0.00" departDelay="0.00" arrival="27045.00" arrivalLane="23015533_0" arrivalPos="110.79" arrivalSpeed="13.15" duration="29.00" routeLength="105.69" waitSteps="0" rerouteNo="1" devices="tripinfo_245947_245947_454 hbefa_245947_245947_454" vType="DEFAULT_VEHTYPE" vaporized="">
        <emissions CO_abs="949.457340" CO2_abs="72813.452528" HC_abs="22.730459" PMx_abs="8.466831" NOx_abs="152.642033" fuel_abs="29.029603"/>
    </tripinfo>
    <tripinfo id="140107_140107_414" depart="27000.00" departLane="154755117_0" departPos="5.10" departSpeed="0.00" departDelay="0.00" arrival="27046.00" arrivalLane="23800191#0_0" arrivalPos="143.94" arrivalSpeed="13.24" duration="46.00" routeLength="138.84" waitSteps="19" rerouteNo="1" devices="tripinfo_140107_140107_414 hbefa_140107_140107_414" vType="DEFAULT_VEHTYPE" vaporized="">
        <emissions CO_abs="807.514633" CO2_abs="68425.230649" HC_abs="23.615346" PMx_abs="6.815377" NOx_abs="133.976965" fuel_abs="27.280084"/>
    </tripinfo>
    <tripinfo id="95606_95606_394" depart="27000.00" departLane="8225148_0" departPos="5.10" departSpeed="0.00" departDelay="0.00" arrival="27047.00" arrivalLane="145261451_0" arrivalPos="86.92" arrivalSpeed="13.75" duration="47.00" routeLength="81.82" waitSteps="0" rerouteNo="5" devices="tripinfo_95606_95606_394 hbefa_95606_95606_394" vType="DEFAULT_VEHTYPE" vaporized="">
        <emissions CO_abs="1322.543407" CO2_abs="114110.891233" HC_abs="33.694562" PMx_abs="12.479204" NOx_abs="233.834412" fuel_abs="45.494265"/>
    </tripinfo>
    <tripinfo id="244003_244003_453" depart="27029.00" departLane="-28523795_0" departPos="5.10" departSpeed="0.00" departDelay="0.00" arrival="27047.00" arrivalLane="-28523795_0" arrivalPos="192.02" arrivalSpeed="13.61" duration="18.00" routeLength="186.92" waitSteps="0" rerouteNo="0" devices="tripinfo_244003_244003_453 hbefa_244003_244003_453" vType="DEFAULT_VEHTYPE" vaporized="">
        <emissions CO_abs="513.589049" CO2_abs="47089.666697" HC_abs="13.766965" PMx_abs="4.809834" NOx_abs="94.786944" fuel_abs="18.773930"/>
    </tripinfo>
    <tripinfo id="101939_101939_396" depart="27006.00" departLane="23471158#0_0" departPos="5.10" departSpeed="0.00" departDelay="6.00" arrival="27047.00" arrivalLane="32856811#2_0" arrivalPos="144.91" arrivalSpeed="13.47" duration="41.00" routeLength="139.81" waitSteps="0" rerouteNo="3" devices="tripinfo_101939_101939_396 hbefa_101939_101939_396" vType="DEFAULT_VEHTYPE" vaporized="">
        <emissions CO_abs="3219.346745" CO2_abs="196553.204209" HC_abs="64.674241" PMx_abs="25.482656" NOx_abs="437.151073" fuel_abs="78.362799"/>
    </tripinfo>
    <tripinfo id="227630_227630_450" depart="27017.00" departLane="166155712#0_0" departPos="5.10" departSpeed="0.00" departDelay="0.00" arrival="27047.00" arrivalLane="33469672_0" arrivalPos="142.78" arrivalSpeed="13.61" duration="30.00" routeLength="137.68" waitSteps="0" rerouteNo="1" devices="tripinfo_227630_227630_450 hbefa_227630_227630_450" vType="DEFAULT_VEHTYPE" vaporized="">
        <emissions CO_abs="925.792438" CO2_abs="80597.616203" HC_abs="23.780964" PMx_abs="8.812759" NOx_abs="164.876482" fuel_abs="32.133035"/>
    </tripinfo>
    <tripinfo id="221885_221885_448" depart="27017.00" departLane="-175607927#0_0" departPos="5.10" departSpeed="0.00" departDelay="0.00" arrival="27048.00" arrivalLane="-29214406_0" arrivalPos="179.38" arrivalSpeed="13.34" duration="31.00" routeLength="174.28" waitSteps="0" rerouteNo="1" devices="tripinfo_221885_221885_448 hbefa_221885_221885_448" vType="DEFAULT_VEHTYPE" vaporized="">