<?xml version="1.0" encoding="UTF-8"?>

<!-- generated on Mon May 12 10:54:40 2014 by SUMO sumo Version dev-SVN-r15641
<?xml version="1.0" encoding="UTF-8"?>

<configuration xmlns:xsi="http://www.w3.org/2001/XMLSchema-instance" xsi:noNamespaceSchemaLocation="http://sumo-sim.org/xsd/sumoConfiguration.xsd">

    <input>
        <net-file value="data/map.net.xml"/>
        <route-files value="data/map.rou.xml"/>
    </input>

    <output>
        <tripinfo-output value="data/maptripinfo.out.xml"/>
        <save-state.prefix value="data/state"/>
    </output>

    <time>
        <begin value="27000"/>
        <end value="27900"/>
    </time>

    <processing>
        <route-steps value="200"/>
        <scale value="0.8"/>
        <time-to-teleport value="300"/>
        <lanechange.allow-swap value="true"/>
    </processing>

    <report>
        <verbose value="true"/>
        <no-warnings value="true"/>
        <no-step-log value="true"/>
    </report>

    <emissions>
        <device.hbefa.probability value="1"/>
    </emissions>

    <traci_server>
        <remote-port value="8814"/>
    </traci_server>

</configuration>
-->

<tripinfos>
    <tripinfo id="136022_136022_411" depart="27003.00" departLane="23800191#2_0" departPos="5.10" departSpeed="0.00" departDelay="3.00" arrival="27009.00" arrivalLane="23800191#2_0" arrivalPos="38.41" arrivalSpeed="11.87" duration="6.00" routeLength="33.31" waitSteps="0" rerouteNo="1" devices="tripinfo_136022_136022_411 hbefa_136022_136022_411" vType="DEFAULT_VEHTYPE" vaporized="">
        <emissions CO_abs="372.823756" CO2_abs="24627.324249" HC_abs="8.464374" PMx_abs="3.150632" NOx_abs="53.050105" fuel_abs="9.818532"/>
    </tripinfo>
    <tripinfo id="182087_182087_431" depart="27000.00" departLane="4380937#2_0" departPos="5.10" departSpeed="0.00" departDelay="0.00" arrival="27011.00" arrivalLane="4380937#3_0" arrivalPos="72.76" arrivalSpeed="13.21" duration="11.00" routeLength="103.50" waitSteps="0" rerouteNo="3" devices="tripinfo_182087_182087_431 hbefa_182087_182087_431" vType="DEFAULT_VEHTYPE" vaporized="">
        <emissions CO_abs="492.955634" CO2_abs="36584.756277" HC_abs="11.712874" PMx_abs="4.367728" NOx_abs="77.080643" fuel_abs="14.585779"/>
    </tripinfo>
    <tripinfo id="105435_105435_398" depart="27003.00" departLane="145474196#1_0" departPos="5.10" departSpeed="0.00" departDelay="3.00" arrival="27013.00" arrivalLane="145474196#1_0" arrivalPos="94.12" arrivalSpeed="13.45" duration="10.00" routeLength="89.02" waitSteps="0" rerouteNo="0" devices="tripinfo_105435_105435_398 hbefa_105435_105435_398" vType="DEFAULT_VEHTYPE" vaporized="">
        <emissions CO_abs="523.357735" CO2_abs="36064.892615" HC_abs="11.947458" PMx_abs="4.402897" NOx_abs="77.089161" fuel_abs="14.378515"/>
    </tripinfo>
    <tripinfo id="72912_72912_384" depart="27003.00" departLane="9207803_0" departPos="5.10" departSpeed="0.00" departDelay="3.00" arrival="27014.00" arrivalLane="9207803_0" arrivalPos="69.23" arrivalSpeed="7.51" duration="11.00" routeLength="64.13" waitSteps="0" rerouteNo="1" devices="tripinfo_72912_72912_384 hbefa_72912_72912_384" vType="DEFAULT_VEHTYPE" vaporized="">
        <emissions CO_abs="182.325484" CO2_abs="17268.703673" HC_abs="5.495252" PMx_abs="1.700335" NOx_abs="33.645004" fuel_abs="6.884764"/>
    </tripinfo>
    <tripinfo id="92380_92380_392" depart="27000.00" departLane="-154755073#3_0" departPos="5.10" departSpeed="0.00" departDelay="0.00" arrival="27015.00" arrivalLane="-154755073#3_0" arrivalPos="102.52" arrivalSpeed="7.36" duration="15.00" routeLength="97.42" waitSteps="0" rerouteNo="1" devices="tripinfo_92380_92380_392 hbefa_92380_92380_392" vType="DEFAULT_VEHTYPE" vaporized="">
        <emissions CO_abs="169.168989" CO2_abs="21153.067081" HC_abs="6.228335" PMx_abs="1.827166" NOx_abs="39.152090" fuel_abs="8.433400"/>
    </tripinfo>
    <tripinfo id="251564_251564_457" depart="27002.00" departLane="51113317_0" departPos="5.10" departSpeed="0.00" departDelay="0.00" arrival="27015.00" arrivalLane="51113317_0" arrivalPos="125.08" arrivalSpeed="13.41" duration="13.00" routeLength="119.98" waitSteps="0" rerouteNo="1" devices="tripinfo_251564_251564_457 hbefa_251564_251564_457" vType="DEFAULT_VEHTYPE" vaporized="">
        <emissions CO_abs="512.726977" CO2_abs="39300.126882" HC_abs="12.414507" PMx_abs="4.598760" NOx_abs="82.195217" fuel_abs="15.668356"/>
    </tripinfo>
    <tripinfo id="105964_105964_399" depart="27006.00" departLane="145474196#1_0" departPos="5.10" departSpeed="0.00" departDelay="6.00" arrival="27016.00" arrivalLane="145474196#1_0" arrivalPos="94.12" arrivalSpeed="13.25" duration="10.00" routeLength="89.02" waitSteps="0" rerouteNo="1" devices="tripinfo_105964_105964_399 hbefa_105964_105964_399" vType="DEFAULT_VEHTYPE" vaporized="">
        <emissions CO_abs="447.489483" CO2_abs="35166.440947" HC_abs="11.046925" PMx_abs="3.929576" NOx_abs="72.846632" fuel_abs="14.020318"/>
    </tripinfo>
    <tripinfo id="84049_84049_390" depart="27006.00" departLane="9207803_0" departPos="5.10" departSpeed="0.00" departDelay="6.00" arrival="27016.00" arrivalLane="9207803_0" arrivalPos="69.23" arrivalSpeed="7.32" duration="10.00" routeLength="64.13" waitSteps="0" rerouteNo="1" devices="tripinfo_84049_84049_390 hbefa_84049_84049_390" vType="DEFAULT_VEHTYPE" vaporized="">
        <emissions CO_abs="178.450100" CO2_abs="18579.911858" HC_abs="5.718159" PMx_abs="1.824350" NOx_abs="35.739513" fuel_abs="7.407523"/>
    </tripinfo>
    <tripinfo id="232041_232041_451" depart="27002.00" departLane="28523795_0" departPos="5.10" departSpeed="0.00" departDelay="0.00" arrival="27020.00" arrivalLane="28523795_0" arrivalPos="192.02" arrivalSpeed="13.22" duration="18.00" routeLength="186.92" waitSteps="0" rerouteNo="1" devices="tripinfo_232041_232041_451 hbefa_232041_232041_451" vType="DEFAULT_VEHTYPE" vaporized="">
        <emissions CO_abs="436.214780" CO2_abs="45252.129894" HC_abs="12.697607" PMx_abs="4.379933" NOx_abs="89.059315" fuel_abs="18.041334"/>
    </tripinfo>
    <tripinfo id="75851_75851_386" depart="27002.00" departLane="28542995#2_0" departPos="5.10" departSpeed="0.00" departDelay="2.00" arrival="27020.00" arrivalLane="23493181#0_0" arrivalPos="88.20" arrivalSpeed="9.92" duration="18.00" routeLength="144.84" waitSteps="0" rerouteNo="3" devices="tripinfo_75851_75851_386 hbefa_75851_75851_386" vType="DEFAULT_VEHTYPE" vaporized="">
        <emissions CO_abs="684.330719" CO2_abs="47699.399038" HC_abs="15.900049" PMx_abs="5.984414" NOx_abs="101.739480" fuel_abs="19.017012"/>
    </tripinfo>
    <tripinfo id="74569_74569_385" depart="27011.00" departLane="23471158#6_0" departPos="5.10" departSpeed="0.00" departDelay="11.00" arrival="27021.00" arrivalLane="23471158#6_0" arrivalPos="99.78" arrivalSpeed="20.02" duration="10.00" routeLength="94.68" waitSteps="0" rerouteNo="1" devices="tripinfo_74569_74569_385 hbefa_74569_74569_385" vType="DEFAULT_VEHTYPE" vaporized="">
        <emissions CO_abs="1014.054817" CO2_abs="62104.374396" HC_abs="21.074707" PMx_abs="8.261676" NOx_abs="137.749094" fuel_abs="24.760061"/>
    </tripinfo>
    <tripinfo id="135880_135880_411" depart="27000.00" departLane="150039002#2_0" departPos="5.10" departSpeed="0.00" departDelay="0.00" arrival="27022.00" arrivalLane="150039002#2_0" arrivalPos="249.40" arrivalSpeed="13.03" duration="22.00" routeLength="244.30" waitSteps="0" rerouteNo="1" devices="tripinfo_135880_135880_411 hbefa_135880_135880_411" vType="DEFAULT_VEHTYPE" vaporized="">
        <emissions CO_abs="492.177326" CO2_abs="46143.843590" HC_abs="13.351321" PMx_abs="4.712106" NOx_abs="92.630082" fuel_abs="18.396845"/>
    </tripinfo>
    <tripinfo id="206737_206737_440" depart="27007.00" departLane="-29206900_0" departPos="5.10" departSpeed="0.00" departDelay="0.00" arrival="27022.00" arrivalLane="29207110_0" arrivalPos="28.94" arrivalSpeed="13.62" duration="15.00" routeLength="103.46" waitSteps="0" rerouteNo="2" devices="tripinfo_206737_206737_440 hbefa_206737_206737_440" vType="DEFAULT_VEHTYPE" vaporized="">
        <emissions CO_abs="525.100401" CO2_abs="39784.890636" HC_abs="12.952315" PMx_abs="4.587833" NOx_abs="82.721948" fuel_abs="15.861620"/>
    </tripinfo>
    <tripinfo id="110327_110327_401" depart="27000.00" departLane="53212166#0_0" departPos="5.10" departSpeed="0.00" departDelay="0.00" arrival="27024.00" arrivalLane="28542995#2_2" arrivalPos="61.74" arrivalSpeed="13.89" duration="24.00" routeLength="231.82" waitSteps="0" rerouteNo="4" devices="tripinfo_110327_110327_401 hbefa_110327_110327_401" vType="DEFAULT_VEHTYPE" vaporized="">
        <emissions CO_abs="562.004727" CO2_abs="48005.815425" HC_abs="14.510062" PMx_abs="5.173752" NOx_abs="97.963384" fuel_abs="19.139181"/>
    </tripinfo>
    <tripinfo id="225242_225242_449" depart="27000.00" departLane="154755124_0" departPos="5.10" departSpeed="0.00" departDelay="0.00" arrival="27024.00" arrivalLane="4380937#3_1" arrivalPos="72.76" arrivalSpeed="13.60" duration="24.00" routeLength="189.24" waitSteps="0" rerouteNo="3" devices="tripinfo_225242_225242_449 hbefa_225242_225242_449" vType="DEFAULT_VEHTYPE" vaporized="">
        <emissions CO_abs="621.017112" CO2_abs="53087.108541" HC_abs="16.360949" PMx_abs="5.812502" NOx_abs="107.947256" fuel_abs="21.165012"/>
    </tripinfo>
    <tripinfo id="225541_225541_450" depart="27000.00" departLane="9207803_0" departPos="5.10" departSpeed="0.00" departDelay="0.00" arrival="27024.00" arrivalLane="154755073#3_0" arrivalPos="102.52" arrivalSpeed="7.61" duration="24.00" routeLength="166.65" waitSteps="0" rerouteNo="2" devices="tripinfo_225541_225541_450 hbefa_225541_225541_450" vType="DEFAULT_VEHTYPE" vaporized="">
        <emissions CO_abs="296.246537" CO2_abs="36536.450050" HC_abs="10.617659" PMx_abs="3.184563" NOx_abs="68.241848" fuel_abs="14.566517"/>
    </tripinfo>
    <tripinfo id="141415_141415_415" depart="27003.00" departLane="150039002#2_0" departPos="5.10" departSpeed="0.00" departDelay="3.00" arrival="27025.00" arrivalLane="150039002#2_0" arrivalPos="249.40" arrivalSpeed="12.93" duration="22.00" routeLength="244.30" waitSteps="0" rerouteNo="1" devices="tripinfo_141415_141415_415 hbefa_141415_141415_415" vType="DEFAULT_VEHTYPE" vaporized="">
        <emissions CO_abs="431.345605" CO2_abs="45276.279045" HC_abs="12.562253" PMx_abs="4.482955" NOx_abs="89.264631" fuel_abs="18.050962"/>
    </tripinfo>
    <tripinfo id="148867_148867_417" depart="27006.00" departLane="3065455_0" departPos="5.10" departSpeed="0.00" departDelay="6.00" arrival="27025.00" arrivalLane="23800191#0_0" arrivalPos="143.94" arrivalSpeed="13.32" duration="19.00" routeLength="194.49" waitSteps="0" rerouteNo="2" devices="tripinfo_148867_148867_417 hbefa_148867_148867_417" vType="DEFAULT_VEHTYPE" vaporized="">
        <emissions CO_abs="457.537425" CO2_abs="45420.553440" HC_abs="13.002527" PMx_abs="4.489417" NOx_abs="89.927731" fuel_abs="18.108480"/>
    </tripinfo>
    <tripinfo id="219187_219187_446" depart="27000.00" departLane="144935690_0" departPos="5.10" departSpeed="0.00" departDelay="0.00" arrival="27025.00" arrivalLane="25997632_0" arrivalPos="136.14" arrivalSpeed="13.72" duration="25.00" routeLength="241.37" waitSteps="0" rerouteNo="3" devices="tripinfo_219187_219187_446 hbefa_219187_219187_446" vType="DEFAULT_VEHTYPE" vaporized="">
        <emissions CO_abs="797.373105" CO2_abs="66631.048002" HC_abs="20.384867" PMx_abs="7.224507" NOx_abs="136.377713" fuel_abs="26.564775"/>
    </tripinfo>
    <tripinfo id="136596_136596_411" depart="27003.00" departLane="131651824_0" departPos="5.10" departSpeed="0.00" departDelay="3.00" arrival="27026.00" arrivalLane="4400211#0_0" arrivalPos="197.56" arrivalSpeed="10.64" duration="23.00" routeLength="253.49" waitSteps="0" rerouteNo="2" devices="tripinfo_136596_136596_411 hbefa_136596_136596_411" vType="DEFAULT_VEHTYPE" vaporized="">
        <emissions CO_abs="597.458139" CO2_abs="54761.793378" HC_abs="15.972791" PMx_abs="5.627301" NOx_abs="110.361111" fuel_abs="21.832689"/>
    </tripinfo>
    <tripinfo id="68737_68737_381" depart="27013.00" departLane="23493176_0" departPos="5.10" departSpeed="0.00" departDelay="13.00" arrival="27027.00" arrivalLane="23493176_1" arrivalPos="83.31" arrivalSpeed="7.07" duration="14.00" routeLength="78.21" waitSteps="0" rerouteNo="1" devices="tripinfo_68737_68737_381 hbefa_68737_68737_381" vType="DEFAULT_VEHTYPE" vaporized="">
        <emissions CO_abs="355.017312" CO2_abs="27033.733475" HC_abs="9.126870" PMx_abs="3.055977" NOx_abs="55.464138" fuel_abs="10.777929"/>
    </tripinfo>
    <tripinfo id="220353_220353_447" depart="27001.00" departLane="-165515969#3_0" departPos="5.10" departSpeed="0.00" departDelay="0.00" arrival="27027.00" arrivalLane="-165511531#0_0" arrivalPos="53.73" arrivalSpeed="12.62" duration="26.00" routeLength="345.81" waitSteps="0" rerouteNo="5" devices="tripinfo_220353_220353_447 hbefa_220353_220353_447" vType="DEFAULT_VEHTYPE" vaporized="">
        <emissions CO_abs="2182.896874" CO2_abs="132831.594711" HC_abs="44.358551" PMx_abs="16.813133" NOx_abs="293.861321" fuel_abs="52.957950"/>
    </tripinfo>
    <tripinfo id="134089_134089_411" depart="27000.00" departLane="23800191#2_0" departPos="5.10" departSpeed="0.00" departDelay="0.00" arrival="27028.00" arrivalLane="4400211#0_0" arrivalPos="197.56" arrivalSpeed="13.72" duration="28.00" routeLength="291.90" waitSteps="0" rerouteNo="3" devices="tripinfo_134089_134089_411 hbefa_134089_134089_411" vType="DEFAULT_VEHTYPE" vaporized="">
        <emissions CO_abs="893.279460" CO2_abs="72367.536275" HC_abs="22.008551" PMx_abs="8.278116" NOx_abs="150.185776" fuel_abs="28.851826"/>
    </tripinfo>
    <tripinfo id="118681_118681_405" depart="27000.00" departLane="23471158#6_0" departPos="5.10" departSpeed="0.00" departDelay="0.00" arrival="27030.00" arrivalLane="32856811#2_0" arrivalPos="144.91" arrivalSpeed="13.51" duration="30.00" routeLength="453.34" waitSteps="0" rerouteNo="3" devices="tripinfo_118681_118681_405 hbefa_118681_118681_405" vType="DEFAULT_VEHTYPE" vaporized="">
        <emissions CO_abs="2081.637122" CO2_abs="128840.283961" HC_abs="42.308540" PMx_abs="16.499335" NOx_abs="284.894691" fuel_abs="51.366682"/>
    </tripinfo>
    <tripinfo id="188835_188835_434" depart="27005.00" departLane="187965762#1_0" departPos="5.10" departSpeed="0.00" departDelay="5.00" arrival="27030.00" arrivalLane="187965762#2_0" arrivalPos="85.18" arrivalSpeed="7.56" duration="25.00" routeLength="168.92" waitSteps="0" rerouteNo="2" devices="tripinfo_188835_188835_434 hbefa_188835_188835_434" vType="DEFAULT_VEHTYPE" vaporized="">
        <emissions CO_abs="247.931504" CO2_abs="33836.531518" HC_abs="9.687909" PMx_abs="2.787781" NOx_abs="61.945672" fuel_abs="13.490102"/>
    </tripinfo>
    <tripinfo id="187318_187318_433" depart="27013.00" departLane="-83823403#2_0" departPos="5.10" departSpeed="0.00" departDelay="0.00" arrival="27030.00" arrivalLane="-83823403#2_0" arrivalPos="184.87" arrivalSpeed="12.66" duration="17.00" routeLength="179.77" waitSteps="0" rerouteNo="1" devices="tripinfo_187318_187318_433 hbefa_187318_187318_433" vType="DEFAULT_VEHTYPE" vaporized="">
        <emissions CO_abs="521.537989" CO2_abs="44609.179685" HC_abs="13.398404" PMx_abs="4.865747" NOx_abs="91.241463" fuel_abs="17.784996"/>
    </tripinfo>
    <tripinfo id="122617_122617_406" depart="27000.00" departLane="131651824_0" departPos="5.10" departSpeed="0.00" departDelay="0.00" arrival="27031.00" arrivalLane="130875842_0" arrivalPos="81.21" arrivalSpeed="13.33" duration="31.00" routeLength="334.70" waitSteps="0" rerouteNo="3" devices="tripinfo_122617_122617_406 hbefa_122617_122617_406" vType="DEFAULT_VEHTYPE" vaporized="">
        <emissions CO_abs="872.669914" CO2_abs="78430.638174" HC_abs="22.973220" PMx_abs="8.251820" NOx_abs="158.968812" fuel_abs="31.269095"/>
    </tripinfo>
    <tripinfo id="103637_103637_397" depart="27000.00" departLane="145474196#1_0" departPos="5.10" departSpeed="0.00" departDelay="0.00" arrival="27032.00" arrivalLane="150039002#2_1" arrivalPos="249.40" arrivalSpeed="13.50" duration="32.00" routeLength="361.28" waitSteps="0" rerouteNo="2" devices="tripinfo_103637_103637_397 hbefa_103637_103637_397" vType="DEFAULT_VEHTYPE" vaporized="">
        <emissions CO_abs="863.765492" CO2_abs="77423.270599" HC_abs="22.548916" PMx_abs="8.090602" NOx_abs="157.108966" fuel_abs="30.867475"/>
    </tripinfo>
    <tripinfo id="104726_104726_398" depart="27000.00" departLane="23471158#5_0" departPos="5.10" departSpeed="0.00" departDelay="0.00" arrival="27033.00" arrivalLane="32856811#2_0" arrivalPos="144.91" arrivalSpeed="12.70" duration="33.00" routeLength="464.21" waitSteps="0" rerouteNo="7" devices="tripinfo_104726_104726_398 hbefa_104726_104726_398" vType="DEFAULT_VEHTYPE" vaporized="">
        <emissions CO_abs="1857.804449" CO2_abs="122496.350427" HC_abs="39.095370" PMx_abs="14.305265" NOx_abs="264.572338" fuel_abs="48.837468"/>
    </tripinfo>
    <tripinfo id="208001_208001_441" depart="27001.00" departLane="-83823403#2_0" departPos="5.10" departSpeed="0.00" departDelay="0.00" arrival="27033.00" arrivalLane="23015529#0_0" arrivalPos="184.87" arrivalSpeed="13.77" duration="32.00" routeLength="364.64" waitSteps="0" rerouteNo="2" devices="tripinfo_208001_208001_441 hbefa_208001_208001_441" vType="DEFAULT_VEHTYPE" vaporized="">
        <emissions CO_abs="801.073068" CO2_abs="73926.650021" HC_abs="21.389282" PMx_abs="7.657843" NOx_abs="149.147377" fuel_abs="29.473425"/>
    </tripinfo>
    <tripinfo id="212444_212444_443" depart="27003.00" departLane="166155712#0_0" departPos="5.10" departSpeed="0.00" departDelay="0.00" arrival="27033.00" arrivalLane="33469672_0" arrivalPos="142.78" arrivalSpeed="12.70" duration="30.00" routeLength="317.06" waitSteps="0" rerouteNo="2" devices="tripinfo_212444_212444_443 hbefa_212444_212444_443" vType="DEFAULT_VEHTYPE" vaporized="">
        <emissions CO_abs="962.350986" CO2_abs="73075.316548" HC_abs="22.897613" PMx_abs="8.594435" NOx_abs="153.622510" fuel_abs="29.134005"/>
    </tripinfo>
    <tripinfo id="217202_217202_446" depart="27007.00" departLane="-83823403#2_0" departPos="5.10" departSpeed="0.00" departDelay="0.00" arrival="27034.00" arrivalLane="23015533_0" arrivalPos="110.79" arrivalSpeed="12.74" duration="27.00" routeLength="290.56" waitSteps="0" rerouteNo="2" devices="tripinfo_217202_217202_446 hbefa_217202_217202_446" vType="DEFAULT_VEHTYPE" vaporized="">
        <emissions CO_abs="853.805893" CO2_abs="69373.505426" HC_abs="21.147139" PMx_abs="7.708480" NOx_abs="143.471942" fuel_abs="27.658152"/>
    </tripinfo>
    <tripinfo id="123467_123467_406" depart="27005.00" departLane="23471158#6_0" departPos="5.10" departSpeed="0.00" departDelay="5.00" arrival="27035.00" arrivalLane="32856811#2_0" arrivalPos="144.91" arrivalSpeed="13.07" duration="30.00" routeLength="453.34" waitSteps="0" rerouteNo="3" devices="tripinfo_123467_123467_406 hbefa_123467_123467_406" vType="DEFAULT_VEHTYPE" vaporized="">
        <emissions CO_abs="2206.749684" CO2_abs="139162.084344" HC_abs="45.204316" PMx_abs="17.218980" NOx_abs="305.415895" fuel_abs="55.481836"/>
    </tripinfo>
    <tripinfo id="103310_103310_397" depart="27000.00" departLane="83703645_0" departPos="5.10" departSpeed="0.00" departDelay="0.00" arrival="27036.00" arrivalLane="23493177#0_0" arrivalPos="166.52" arrivalSpeed="7.77" duration="36.00" routeLength="279.85" waitSteps="0" rerouteNo="3" devices="tripinfo_103310_103310_397 hbefa_103310_103310_397" vType="DEFAULT_VEHTYPE" vaporized="">
        <emissions CO_abs="574.610712" CO2_abs="54667.566003" HC_abs="16.598760" PMx_abs="5.525999" NOx_abs="107.940057" fuel_abs="21.795113"/>
    </tripinfo>
    <tripinfo id="238887_238887_451" depart="27010.00" departLane="-83823403#2_0" departPos="5.10" departSpeed="0.00" departDelay="0.00" arrival="27037.00" arrivalLane="23015533_0" arrivalPos="110.79" arrivalSpeed="13.60" duration="27.00" routeLength="290.56" waitSteps="0" rerouteNo="3" devices="tripinfo_238887_238887_451 hbefa_238887_238887_451" vType="DEFAULT_VEHTYPE" vaporized="">
        <emissions CO_abs="871.611962" CO2_abs="68134.104092" HC_abs="21.072723" PMx_abs="7.729532" NOx_abs="142.082601" fuel_abs="27.164021"/>
    </tripinfo>
    <tripinfo id="154499_154499_420" depart="27000.00" departLane="28542995#0_0" departPos="5.10" departSpeed="0.00" departDelay="0.00" arrival="27039.00" arrivalLane="23493260#4_1" arrivalPos="126.60" arrivalSpeed="13.89" duration="39.00" routeLength="435.19" waitSteps="0" rerouteNo="9" devices="tripinfo_154499_154499_420 hbefa_154499_154499_420" vType="DEFAULT_VEHTYPE" vaporized="">
        <emissions CO_abs="1024.215672" CO2_abs="98378.847108" HC_abs="28.033416" PMx_abs="10.097908" NOx_abs="197.100008" fuel_abs="39.222144"/>
    </tripinfo>
    <tripinfo id="138122_138122_412" depart="27009.00" departLane="131651824_0" departPos="5.10" departSpeed="0.00" departDelay="9.00" arrival="27039.00" arrivalLane="130875842_0" arrivalPos="81.21" arrivalSpeed="12.62" duration="30.00" routeLength="334.70" waitSteps="0" rerouteNo="5" devices="tripinfo_138122_138122_412 hbefa_138122_138122_412" vType="DEFAULT_VEHTYPE" vaporized="">
        <emissions CO_abs="913.660993" CO2_abs="75178.319353" HC_abs="22.600484" PMx_abs="8.371318" NOx_abs="155.519662" fuel_abs="29.972444"/>
    </tripinfo>
    <tripinfo id="171544_171544_426" depart="27000.00" departLane="187965762#1_0" departPos="5.10" departSpeed="0.00" departDelay="0.00" arrival="27040.00" arrivalLane="23800191#0_0" arrivalPos="143.94" arrivalSpeed="13.63" duration="40.00" routeLength="368.51" waitSteps="0" rerouteNo="4" devices="tripinfo_171544_171544_426 hbefa_171544_171544_426" vType="DEFAULT_VEHTYPE" vaporized="">
        <emissions CO_abs="631.636656" CO2_abs="68205.700331" HC_abs="19.232107" PMx_abs="6.590967" NOx_abs="133.032206" fuel_abs="27.192568"/>
    </tripinfo>
    <tripinfo id="218769_218769_446" depart="27003.00" departLane="-55940134_0" departPos="5.10" departSpeed="0.00" departDelay="3.00" arrival="27041.00" arrivalLane="-144935692#1_1" arrivalPos="103.61" arrivalSpeed="13.21" duration="38.00" routeLength="447.77" waitSteps="0" rerouteNo="4" devices="tripinfo_218769_218769_446 hbefa_218769_218769_446" vType="DEFAULT_VEHTYPE" vaporized="">
        <emissions CO_abs="609.031093" CO2_abs="74367.822502" HC_abs="19.454730" PMx_abs="6.707091" NOx_abs="143.129007" fuel_abs="29.649323"/>
    </tripinfo>
    <tripinfo id="211099_211099_442" depart="27013.00" departLane="166155712#0_0" departPos="5.10" departSpeed="0.00" departDelay="0.00" arrival="27041.00" arrivalLane="33469672_0" arrivalPos="142.78" arrivalSpeed="13.63" duration="28.00" routeLength="317.06" waitSteps="0" rerouteNo="3" devices="tripinfo_211099_211099_442 hbefa_211099_211099_442" vType="DEFAULT_VEHTYPE" vaporized="">
        <emissions CO_abs="810.919828" CO2_abs="70376.283471" HC_abs="20.659258" PMx_abs="7.788986" NOx_abs="144.388012" fuel_abs="28.057948"/>
    </tripinfo>
    <tripinfo id="244420_244420_453" depart="27015.00" departLane="-165515969#3_0" departPos="5.10" departSpeed="0.00" departDelay="0.00" arrival="27041.00" arrivalLane="-165511531#0_0" arrivalPos="53.73" arrivalSpeed="13.48" duration="26.00" routeLength="345.81" waitSteps="0" rerouteNo="5" devices="tripinfo_244420_244420_453 hbefa_244420_244420_453" vType="DEFAULT_VEHTYPE" vaporized="">
        <emissions CO_abs="2330.917883" CO2_abs="139679.493777" HC_abs="47.071489" PMx_abs="18.322742" NOx_abs="311.128468" fuel_abs="55.688097"/>
    </tripinfo>
    <tripinfo id="197472_197472_436" depart="27006.00" departLane="23800191#2_0" departPos="5.10" departSpeed="0.00" departDelay="6.00" arrival="27042.00" arrivalLane="130875842_0" arrivalPos="81.21" arrivalSpeed="13.74" duration="36.00" routeLength="373.11" waitSteps="0" rerouteNo="4" devices="tripinfo_197472_197472_436 hbefa_197472_197472_436" vType="DEFAULT_VEHTYPE" vaporized="">
        <emissions CO_abs="1041.909891" CO2_abs="95822.657694" HC_abs="27.767833" PMx_abs="10.028921" NOx_abs="193.572017" fuel_abs="38.203027"/>
    </tripinfo>
    <tripinfo id="224931_224931_449" depart="27026.00" departLane="-28523795_0" departPos="5.10" departSpeed="0.00" departDelay="0.00" arrival="27043.00" arrivalLane="-28523795_0" arrivalPos="192.02" arrivalSpeed="12.68" duration="17.00" routeLength="186.92" waitSteps="0" rerouteNo="1" devices="tripinfo_224931_224931_449 hbefa_224931_224931_449" vType="DEFAULT_VEHTYPE" vaporized="">
        <emissions CO_abs="482.428832" CO2_abs="43519.590803" HC_abs="12.664391" PMx_abs="4.726422" NOx_abs="88.441441" fuel_abs="17.350595"/>
    </tripinfo>
    <tripinfo id="245947_245947_454" depart="27016.00" departLane="-83823403#2_0" departPos="5.10" departSpeed="0.00" departDelay="0.00" arrival="27043.00" arrivalLane="23015533_0" arrivalPos="110.79" arrivalSpeed="13.53" duration="27.00" routeLength="290.56" waitSteps="0" rerouteNo="2" devices="tripinfo_245947_245947_454 hbefa_245947_245947_454" vType="DEFAULT_VEHTYPE" vaporized="">
        <emissions CO_abs="877.419298" CO2_abs="68411.715659" HC_abs="21.212057" PMx_abs="7.760187" NOx_abs="142.680719" fuel_abs="27.274699"/>
    </tripinfo>
    <tripinfo id="212327_212327_442" depart="27014.00" departLane="198147972_0" departPos="5.10" departSpeed="0.00" departDelay="0.00" arrival="27043.00" arrivalLane="4353628#1_0" arrivalPos="68.95" arrivalSpeed="13.77" duration="29.00" routeLength="339.08" waitSteps="0" rerouteNo="4" devices="tripinfo_212327_212327_442 hbefa_212327_212327_442" vType="DEFAULT_VEHTYPE" vaporized="">
        <emissions CO_abs="548.388638" CO2_abs="61212.914066" HC_abs="16.566581" PMx_abs="5.766606" NOx_abs="119.456929" fuel_abs="24.404658"/>
    </tripinfo>
    <tripinfo id="184987_184987_431" depart="27000.00" departLane="-186463490#0_0" departPos="5.10" departSpeed="0.00" departDelay="0.00" arrival="27044.00" arrivalLane="-144935692#1_0" arrivalPos="103.61" arrivalSpeed="13.21" duration="44.00" routeLength="500.46" waitSteps="0" rerouteNo="9" devices="tripinfo_184987_184987_431 hbefa_184987_184987_431" vType="DEFAULT_VEHTYPE" vaporized="">
        <emissions CO_abs="1095.529633" CO2_abs="101091.402032" HC_abs="29.199595" PMx_abs="10.382111" NOx_abs="203.798958" fuel_abs="40.303596"/>
    </tripinfo>
    <tripinfo id="101768_101768_396" depart="27000.00" departLane="23493181#0_0" departPos="5.10" departSpeed="0.00" departDelay="0.00" arrival="27044.00" arrivalLane="122989592#2_0" arrivalPos="74.34" arrivalSpeed="7.30" duration="44.00" routeLength="323.96" waitSteps="0" rerouteNo="3" devices="tripinfo_101768_101768_396 hbefa_101768_101768_396" vType="DEFAULT_VEHTYPE" vaporized="">
        <emissions CO_abs="696.764689" CO2_abs="63849.175827" HC_abs="19.655018" PMx_abs="6.675134" NOx_abs="127.118163" fuel_abs="25.455678"/>
    </tripinfo>
    <tripinfo id="192246_192246_435" depart="27018.00" departLane="2511537#2_0" departPos="5.10" departSpeed="0.00" departDelay="18.00" arrival="27044.00" arrivalLane="2511537#2_0" arrivalPos="191.15" arrivalSpeed="7.39" duration="26.00" routeLength="186.05" waitSteps="0" rerouteNo="1" devices="tripinfo_192246_192246_435 hbefa_192246_192246_435" vType="DEFAULT_VEHTYPE" vaporized="">
        <emissions CO_abs="275.372718" CO2_abs="34313.522512" HC_abs="9.956777" PMx_abs="2.941547" NOx_abs="63.957766" fuel_abs="13.680270"/>
    </tripinfo>
    <tripinfo id="95606_95606_394" depart="27000.00" departLane="8225148_0" departPos="5.10" departSpeed="0.00" departDelay="0.00" arrival="27045.00" arrivalLane="145261451_0" arrivalPos="86.92" arrivalSpeed="13.17" duration="45.00" routeLength="515.94" waitSteps="0" rerouteNo="6" devices="tripinfo_95606_95606_394 hbefa_95606_95606_394" vType="DEFAULT_VEHTYPE" vaporized="">
        <emissions CO_abs="1311.690548" CO2_abs="113266.323211" HC_abs="33.321898" PMx_abs="12.269867" NOx_abs="232.159556" fuel_abs="45.157551"/>
    </tripinfo>
    <tripinfo id="227630_227630_450" depart="27017.00" departLane="166155712#0_0" departPos="5.10" departSpeed="0.00" departDelay="0.00" arrival="27045.00" arrivalLane="33469672_0" arrivalPos="142.78" arrivalSpeed="12.77" duration="28.00" routeLength="317.06" waitSteps="0" rerouteNo="2" devices="tripinfo_227630_227630_450 hbefa_227630_227630_450" vType="DEFAULT_VEHTYPE" vaporized="">
        <emissions CO_abs="820.058108" CO2_abs="73411.664278" HC_abs="21.311024" PMx_abs="7.883748" NOx_abs="149.514534" fuel_abs="29.268108"/>
    </tripinfo>
    <tripinfo id="221885_221885_448" depart="27017.00" departLane="-175607927#0_0" departPos="5.10" departSpeed="0.00" departDelay="0.00" arrival="27046.00" arrivalLane="-29214406_0" arrivalPos="179.38" arrivalSpeed="12.96" duration="29.00" routeLength="317.06" waitSteps="0" rerouteNo="2" devices="tripinfo_221885_221885_448 hbefa_221885_221885_448" vType="DEFAULT_VEHTYPE" vaporized="">
        <emissions CO_abs="869.680559" CO2_abs="71657.341715" HC_abs="21.695494" PMx_abs="7.998139" NOx_abs="147.961201" fuel_abs="28.568683"/>
    </tripinfo>
    <tripinfo id="101376_101376_396" depart="27003.00" departLane="23471158#0_0" departPos="5.10" departSpeed="0.00" departDelay="3.00" arrival="27047.00" arrivalLane="32856811#2_0" arrivalPos="144.91" arrivalSpeed="13.31" duration="44.00" routeLength="664.02" waitSteps="0" rerouteNo="4" devices="tripinfo_101376_101376_396 hbefa_101376_101376_396" vType="DEFAULT_VEHTYPE" vaporized="">
        <emissions CO_abs="3272.724361" CO2_abs="208507.516665" HC_abs="67.428048" PMx_abs="26.192112" NOx_abs="458.378684" fuel_abs="83.128798"/>
    </tripinfo>
    <tripinfo id="244003_244003_453" depart="27029.00" departLane="-28523795_0" departPos="5.10" departSpeed="0.00" departDelay="0.00" arrival="27047.00" arrivalLane="-28523795_0" arrivalPos="192.02" arrivalSpeed="12.66" duration="18.00" routeLength="186.92" waitSteps="0" rerouteNo="1" devices="tripinfo_244003_244003_453 hbefa_244003_244003_453" vType="DEFAULT_VEHTYPE" vaporized="">