<?xml version="1.0" encoding="UTF-8"?>

<!-- generated on Tue Feb 25 14:52:18 2014 by SUMO sumo Version 0.19.0
<?xml version="1.0" encoding="UTF-8"?>

<configuration xmlns:xsi="http://www.w3.org/2001/XMLSchema-instance" xsi:noNamespaceSchemaLocation="http://sumo-sim.org/xsd/sumoConfiguration.xsd">

    <input>
        <net-file value="data/map.net.xml"/>
        <route-files value="data/map.rou.xml"/>
    </input>

    <output>
        <tripinfo-output value="data/maptripinfo.out.xml"/>
        <save-state.prefix value="data/state"/>
    </output>

    <time>
        <begin value="27000"/>
        <end value="27900"/>
    </time>

    <processing>
        <route-steps value="200"/>
        <scale value="0.8"/>
        <time-to-teleport value="300"/>
        <lanechange.allow-swap value="true"/>
    </processing>

    <report>
        <verbose value="true"/>
        <no-warnings value="false"/>
        <no-step-log value="true"/>
    </report>

    <emissions>
        <device.hbefa.probability value="1"/>
    </emissions>

    <traci_server>
        <remote-port value="8814"/>
    </traci_server>

</configuration>
-->

<tripinfos>
    <tripinfo id="190372_190372_434" depart="27000.00" departLane="36590979#0-AddedOffRampEdge_0" departPos="5.10" departSpeed="0.00" departDelay="0.00" arrival="27010.00" arrivalLane="36590979#0-AddedOffRampEdge_0" arrivalPos="103.44" arrivalSpeed="19.46" duration="10.00" routeLength="98.34" waitSteps="0" rerouteNo="0" devices="tripinfo_190372_190372_434 hbefa_190372_190372_434" vType="DEFAULT_VEHTYPE" vaporized="">
        <emissions CO_abs="930.379719" CO2_abs="58772.074773" HC_abs="19.717655" PMx_abs="7.648290" NOx_abs="129.230574" fuel_abs="23.431523"/>
    </tripinfo>
    <tripinfo id="170065_170065_426" depart="27000.00" departLane="186646384#1_0" departPos="5.10" departSpeed="0.00" departDelay="0.00" arrival="27010.00" arrivalLane="186646384#1_0" arrivalPos="67.85" arrivalSpeed="7.25" duration="10.00" routeLength="62.75" waitSteps="0" rerouteNo="0" devices="tripinfo_170065_170065_426 hbefa_170065_170065_426" vType="DEFAULT_VEHTYPE" vaporized="">
        <emissions CO_abs="166.880731" CO2_abs="16651.712128" HC_abs="5.234359" PMx_abs="1.583283" NOx_abs="32.068009" fuel_abs="6.638779"/>
    </tripinfo>
    <tripinfo id="209908_209908_441" depart="27000.00" departLane="186463490#1_0" departPos="5.10" departSpeed="0.00" departDelay="0.00" arrival="27013.00" arrivalLane="186463490#1_0" arrivalPos="122.40" arrivalSpeed="12.79" duration="13.00" routeLength="117.30" waitSteps="0" rerouteNo="0" devices="tripinfo_209908_209908_441 hbefa_209908_209908_441" vType="DEFAULT_VEHTYPE" vaporized="">
        <emissions CO_abs="422.583580" CO2_abs="37596.291450" HC_abs="11.277891" PMx_abs="3.971253" NOx_abs="75.972072" fuel_abs="14.989064"/>
    </tripinfo>
    <tripinfo id="206552_206552_440" depart="27000.00" departLane="23471158#9_0" departPos="5.10" departSpeed="0.00" departDelay="0.00" arrival="27016.00" arrivalLane="23471158#9_0" arrivalPos="213.75" arrivalSpeed="26.94" duration="16.00" routeLength="208.65" waitSteps="0" rerouteNo="0" devices="tripinfo_206552_206552_440 hbefa_206552_206552_440" vType="DEFAULT_VEHTYPE" vaporized="">
        <emissions CO_abs="1821.390666" CO2_abs="111571.875756" HC_abs="36.932929" PMx_abs="13.799668" NOx_abs="245.940254" fuel_abs="44.482032"/>
    </tripinfo>
    <tripinfo id="115764_115764_403" depart="27000.00" departLane="23471158#6_0" departPos="5.10" departSpeed="0.00" departDelay="0.00" arrival="27018.00" arrivalLane="23471158#9_0" arrivalPos="213.75" arrivalSpeed="26.95" duration="18.00" routeLength="208.65" waitSteps="0" rerouteNo="1" devices="tripinfo_115764_115764_403 hbefa_115764_115764_403" vType="DEFAULT_VEHTYPE" vaporized="">
        <emissions CO_abs="2177.632567" CO2_abs="125798.543076" HC_abs="42.348840" PMx_abs="16.265729" NOx_abs="282.002523" fuel_abs="50.154006"/>
    </tripinfo>
    <tripinfo id="207700_207700_441" depart="27000.00" departLane="85470309#4_0" departPos="5.10" departSpeed="0.00" departDelay="0.00" arrival="27018.00" arrivalLane="85470309#4_0" arrivalPos="208.83" arrivalSpeed="13.34" duration="18.00" routeLength="203.73" waitSteps="0" rerouteNo="0" devices="tripinfo_207700_207700_441 hbefa_207700_207700_441" vType="DEFAULT_VEHTYPE" vaporized="">
        <emissions CO_abs="513.574332" CO2_abs="44896.292170" HC_abs="13.235356" PMx_abs="4.938096" NOx_abs="91.787623" fuel_abs="17.899465"/>
    </tripinfo>
    <tripinfo id="168627_168627_425" depart="27003.00" departLane="23471158#6_0" departPos="5.10" departSpeed="0.00" departDelay="3.00" arrival="27021.00" arrivalLane="23471158#9_0" arrivalPos="213.75" arrivalSpeed="27.05" duration="18.00" routeLength="208.65" waitSteps="0" rerouteNo="1" devices="tripinfo_168627_168627_425 hbefa_168627_168627_425" vType="DEFAULT_VEHTYPE" vaporized="">
        <emissions CO_abs="2127.215585" CO2_abs="121457.259621" HC_abs="41.296608" PMx_abs="16.112719" NOx_abs="273.722700" fuel_abs="48.423190"/>
    </tripinfo>
    <tripinfo id="130918_130918_409" depart="27000.00" departLane="145575263_0" departPos="5.10" departSpeed="0.00" departDelay="0.00" arrival="27022.00" arrivalLane="145575263_0" arrivalPos="260.32" arrivalSpeed="13.10" duration="22.00" routeLength="255.22" waitSteps="0" rerouteNo="0" devices="tripinfo_130918_130918_409 hbefa_130918_130918_409" vType="DEFAULT_VEHTYPE" vaporized="">
        <emissions CO_abs="532.556530" CO2_abs="48050.659740" HC_abs="14.049431" PMx_abs="5.070008" NOx_abs="97.367913" fuel_abs="19.157063"/>
    </tripinfo>
    <tripinfo id="212344_212344_442" depart="27006.00" departLane="23471158#6_0" departPos="5.10" departSpeed="0.00" departDelay="6.00" arrival="27024.00" arrivalLane="23471158#9_0" arrivalPos="213.75" arrivalSpeed="27.55" duration="18.00" routeLength="208.65" waitSteps="0" rerouteNo="1" devices="tripinfo_212344_212344_442 hbefa_212344_212344_442" vType="DEFAULT_VEHTYPE" vaporized="">
        <emissions CO_abs="2195.255561" CO2_abs="127099.563036" HC_abs="42.619998" PMx_abs="16.436171" NOx_abs="284.939258" fuel_abs="50.672706"/>
    </tripinfo>
    <tripinfo id="136315_136315_411" depart="27003.00" departLane="145575263_0" departPos="5.10" departSpeed="0.00" departDelay="3.00" arrival="27025.00" arrivalLane="145575263_0" arrivalPos="260.32" arrivalSpeed="13.40" duration="22.00" routeLength="255.22" waitSteps="0" rerouteNo="0" devices="tripinfo_136315_136315_411 hbefa_136315_136315_411" vType="DEFAULT_VEHTYPE" vaporized="">
        <emissions CO_abs="535.371229" CO2_abs="52122.548897" HC_abs="14.792974" PMx_abs="5.333501" NOx_abs="104.251461" fuel_abs="20.780465"/>
    </tripinfo>
    <tripinfo id="212203_212203_442" depart="27000.00" departLane="-8225138_0" departPos="5.10" departSpeed="0.00" departDelay="0.00" arrival="27025.00" arrivalLane="-22873524#2_0" arrivalPos="64.55" arrivalSpeed="7.16" duration="25.00" routeLength="81.47" waitSteps="0" rerouteNo="2" devices="tripinfo_212203_212203_442 hbefa_212203_212203_442" vType="DEFAULT_VEHTYPE" vaporized="">
        <emissions CO_abs="656.825358" CO2_abs="53296.230449" HC_abs="16.897960" PMx_abs="5.983250" NOx_abs="109.193557" fuel_abs="21.248383"/>
    </tripinfo>
    <tripinfo id="228569_228569_450" depart="27000.00" departLane="26811074_0" departPos="5.10" departSpeed="0.00" departDelay="0.00" arrival="27026.00" arrivalLane="24900481#0_0" arrivalPos="160.62" arrivalSpeed="13.42" duration="26.00" routeLength="155.52" waitSteps="0" rerouteNo="1" devices="tripinfo_228569_228569_450 hbefa_228569_228569_450" vType="DEFAULT_VEHTYPE" vaporized="">
        <emissions CO_abs="938.257357" CO2_abs="75582.554885" HC_abs="23.162635" PMx_abs="8.622800" NOx_abs="156.844587" fuel_abs="30.133604"/>
    </tripinfo>
    <tripinfo id="211849_211849_442" depart="27000.00" departLane="-8225144#3_0" departPos="5.10" departSpeed="0.00" departDelay="0.00" arrival="27028.00" arrivalLane="23015778_0" arrivalPos="93.11" arrivalSpeed="13.00" duration="28.00" routeLength="88.01" waitSteps="0" rerouteNo="2" devices="tripinfo_211849_211849_442 hbefa_211849_211849_442" vType="DEFAULT_VEHTYPE" vaporized="">
        <emissions CO_abs="879.913314" CO2_abs="69744.033661" HC_abs="21.420377" PMx_abs="8.040466" NOx_abs="145.332115" fuel_abs="27.805875"/>
    </tripinfo>
    <tripinfo id="124385_124385_406" depart="27000.00" departLane="36454807#3_0" departPos="5.10" departSpeed="0.00" departDelay="0.00" arrival="27029.00" arrivalLane="145474196#1_1" arrivalPos="94.12" arrivalSpeed="13.27" duration="29.00" routeLength="89.02" waitSteps="0" rerouteNo="2" devices="tripinfo_124385_124385_406 hbefa_124385_124385_406" vType="DEFAULT_VEHTYPE" vaporized="">
        <emissions CO_abs="1186.258051" CO2_abs="84761.516513" HC_abs="27.510627" PMx_abs="10.206287" NOx_abs="180.038608" fuel_abs="33.793107"/>
    </tripinfo>
    <tripinfo id="163396_163396_422" depart="27006.00" departLane="145575263_0" departPos="5.10" departSpeed="0.00" departDelay="6.00" arrival="27029.00" arrivalLane="145575263_0" arrivalPos="260.32" arrivalSpeed="13.12" duration="23.00" routeLength="255.22" waitSteps="0" rerouteNo="0" devices="tripinfo_163396_163396_422 hbefa_163396_163396_422" vType="DEFAULT_VEHTYPE" vaporized="">
        <emissions CO_abs="582.325382" CO2_abs="53761.083925" HC_abs="15.480989" PMx_abs="5.812892" NOx_abs="108.994899" fuel_abs="21.433724"/>
    </tripinfo>
    <tripinfo id="127420_127420_407" depart="27002.00" departLane="36454807#3_0" departPos="5.10" departSpeed="0.00" departDelay="2.00" arrival="27029.00" arrivalLane="23471158#9_0" arrivalPos="213.75" arrivalSpeed="26.54" duration="27.00" routeLength="208.65" waitSteps="0" rerouteNo="3" devices="tripinfo_127420_127420_407 hbefa_127420_127420_407" vType="DEFAULT_VEHTYPE" vaporized="">
        <emissions CO_abs="2375.866691" CO2_abs="144463.896404" HC_abs="47.833235" PMx_abs="18.211072" NOx_abs="319.557176" fuel_abs="57.595592"/>
    </tripinfo>
    <tripinfo id="227966_227966_450" depart="27000.00" departLane="150039002#2_0" departPos="5.10" departSpeed="0.00" departDelay="0.00" arrival="27036.00" arrivalLane="36590979#4_0" arrivalPos="41.97" arrivalSpeed="21.74" duration="36.00" routeLength="36.87" waitSteps="0" rerouteNo="3" devices="tripinfo_227966_227966_450 hbefa_227966_227966_450" vType="DEFAULT_VEHTYPE" vaporized="">
        <emissions CO_abs="1524.486787" CO2_abs="115608.742263" HC_abs="34.574032" PMx_abs="12.789177" NOx_abs="243.167180" fuel_abs="46.091475"/>
    </tripinfo>
    <tripinfo id="237641_237641_451" depart="27000.00" departLane="69366483_0" departPos="5.10" departSpeed="0.00" departDelay="0.00" arrival="27040.00" arrivalLane="23493260#4_0" arrivalPos="126.60" arrivalSpeed="12.91" duration="40.00" routeLength="121.50" waitSteps="0" rerouteNo="3" devices="tripinfo_237641_237641_451 hbefa_237641_237641_451" vType="DEFAULT_VEHTYPE" vaporized="">
        <emissions CO_abs="976.624269" CO2_abs="82290.035347" HC_abs="24.967045" PMx_abs="9.033687" NOx_abs="168.620533" fuel_abs="32.807772"/>
    </tripinfo>
    <tripinfo id="245704_245704_454" depart="27003.00" departLane="150039002#2_0" departPos="5.10" departSpeed="0.00" departDelay="3.00" arrival="27040.00" arrivalLane="36590979#4_0" arrivalPos="41.97" arrivalSpeed="21.46" duration="37.00" routeLength="36.87" waitSteps="0" rerouteNo="3" devices="tripinfo_245704_245704_454 hbefa_245704_245704_454" vType="DEFAULT_VEHTYPE" vaporized="">
        <emissions CO_abs="1493.629761" CO2_abs="107648.878745" HC_abs="33.077499" PMx_abs="12.302038" NOx_abs="228.990177" fuel_abs="42.917990"/>
    </tripinfo>
    <tripinfo id="106411_106411_399" depart="27000.00" departLane="154743410#2_0" departPos="5.10" departSpeed="0.00" departDelay="0.00" arrival="27041.00" arrivalLane="9207798_1" arrivalPos="76.33" arrivalSpeed="17.28" duration="41.00" routeLength="71.23" waitSteps="19" rerouteNo="1" devices="tripinfo_106411_106411_399 hbefa_106411_106411_399" vType="DEFAULT_VEHTYPE" vaporized="">
        <emissions CO_abs="1317.543351" CO2_abs="87829.726968" HC_abs="31.954950" PMx_abs="10.552181" NOx_abs="184.412671" fuel_abs="35.016354"/>
    </tripinfo>
    <tripinfo id="195349_195349_436" depart="27000.00" departLane="-27602630#1_0" departPos="5.10" departSpeed="0.00" departDelay="0.00" arrival="27041.00" arrivalLane="23471158#9_0" arrivalPos="213.75" arrivalSpeed="27.63" duration="41.00" routeLength="208.65" waitSteps="0" rerouteNo="5" devices="tripinfo_195349_195349_436 hbefa_195349_195349_436" vType="DEFAULT_VEHTYPE" vaporized="">
        <emissions CO_abs="3348.173232" CO2_abs="207377.863997" HC_abs="65.306021" PMx_abs="22.794406" NOx_abs="450.977013" fuel_abs="82.678588"/>
    </tripinfo>
    <tripinfo id="221019_221019_448" depart="27028.00" departLane="151057637#2_0" departPos="5.10" departSpeed="0.00" departDelay="1.00" arrival="27042.00" arrivalLane="9207798_0" arrivalPos="76.33" arrivalSpeed="27.35" duration="14.00" routeLength="71.23" waitSteps="0" rerouteNo="1" devices="tripinfo_221019_221019_448 hbefa_221019_221019_448" vType="DEFAULT_VEHTYPE" vaporized="">
        <emissions CO_abs="2054.982700" CO2_abs="117074.749982" HC_abs="39.880342" PMx_abs="15.749996" NOx_abs="264.554560" fuel_abs="46.675943"/>
    </tripinfo>
    <tripinfo id="210166_210166_441" depart="27006.00" departLane="150031205#1_0" departPos="5.10" departSpeed="0.00" departDelay="6.00" arrival="27042.00" arrivalLane="129833341#0_0" arrivalPos="129.85" arrivalSpeed="13.86" duration="36.00" routeLength="124.75" waitSteps="0" rerouteNo="3" devices="tripinfo_210166_210166_441 hbefa_210166_210166_441" vType="DEFAULT_VEHTYPE" vaporized="">
        <emissions CO_abs="2315.191899" CO2_abs="151077.822925" HC_abs="48.754302" PMx_abs="18.324599" NOx_abs="328.391525" fuel_abs="60.232452"/>
    </tripinfo>
    <tripinfo id="106662_106662_399" depart="27000.00" departLane="28542995#4_0" departPos="5.10" departSpeed="0.00" departDelay="0.00" arrival="27042.00" arrivalLane="-50061433_0" arrivalPos="60.25" arrivalSpeed="13.81" duration="42.00" routeLength="55.15" waitSteps="0" rerouteNo="5" devices="tripinfo_106662_106662_399 hbefa_106662_106662_399" vType="DEFAULT_VEHTYPE" vaporized="">
        <emissions CO_abs="1030.232547" CO2_abs="97146.538416" HC_abs="27.743445" PMx_abs="9.872067" NOx_abs="195.258589" fuel_abs="38.730841"/>
    </tripinfo>
    <tripinfo id="203915_203915_439" depart="27006.00" departLane="-37866521#1_0" departPos="5.10" departSpeed="0.00" departDelay="0.00" arrival="27043.00" arrivalLane="23015529#0_0" arrivalPos="184.87" arrivalSpeed="12.99" duration="37.00" routeLength="179.77" waitSteps="0" rerouteNo="2" devices="tripinfo_203915_203915_439 hbefa_203915_203915_439" vType="DEFAULT_VEHTYPE" vaporized="">
        <emissions CO_abs="1040.866469" CO2_abs="88660.301612" HC_abs="26.300620" PMx_abs="9.639809" NOx_abs="181.996850" fuel_abs="35.347506"/>
    </tripinfo>
    <tripinfo id="218423_218423_446" depart="27000.00" departLane="36564599_0" departPos="5.10" departSpeed="0.00" departDelay="0.00" arrival="27044.00" arrivalLane="36564599_0" arrivalPos="101.75" arrivalSpeed="2.56" duration="44.00" routeLength="96.65" waitSteps="0" rerouteNo="0" devices="tripinfo_218423_218423_446 hbefa_218423_218423_446" vType="DEFAULT_VEHTYPE" vaporized="">
        <emissions CO_abs="156.031171" CO2_abs="22495.827543" HC_abs="8.554003" PMx_abs="1.321149" NOx_abs="36.282525" fuel_abs="8.968736"/>
    </tripinfo>
    <tripinfo id="248075_248075_455" depart="27029.00" departLane="-154755100#0_0" departPos="5.10" departSpeed="0.00" departDelay="0.00" arrival="27045.00" arrivalLane="-154755100#0_0" arrivalPos="171.42" arrivalSpeed="13.18" duration="16.00" routeLength="166.32" waitSteps="0" rerouteNo="0" devices="tripinfo_248075_248075_455 hbefa_248075_248075_455" vType="DEFAULT_VEHTYPE" vaporized="">
        <emissions CO_abs="532.025843" CO2_abs="40933.898041" HC_abs="12.774570" PMx_abs="4.853653" NOx_abs="85.900585" fuel_abs="16.319716"/>
    </tripinfo>
    <tripinfo id="191576_191576_435" depart="27000.00" departLane="150031207#8_0" departPos="5.10" departSpeed="0.00" departDelay="0.00" arrival="27047.00" arrivalLane="23471158#9_0" arrivalPos="213.75" arrivalSpeed="26.95" duration="47.00" routeLength="208.65" waitSteps="0" rerouteNo="6" devices="tripinfo_191576_191576_435 hbefa_191576_191576_435" vType="DEFAULT_VEHTYPE" vaporized="">
        <emissions CO_abs="3724.813537" CO2_abs="222722.638595" HC_abs="71.621880" PMx_abs="26.634670" NOx_abs="492.025144" fuel_abs="88.796303"/>
    </tripinfo>
    <tripinfo id="196017_196017_436" depart="27009.00" departLane="32064260#0_0" departPos="5.10" departSpeed="0.00" departDelay="0.00" arrival="27049.00" arrivalLane="-32064260#1_1" arrivalPos="89.54" arrivalSpeed="13.03" duration="40.00" routeLength="84.44" waitSteps="17" rerouteNo="1" devices="tripinfo_196017_196017_436 hbefa_196017_196017_436" vType="DEFAULT_VEHTYPE" vaporized="">
        <emissions CO_abs="1014.471918" CO2_abs="75395.713792" HC_abs="26.542986" PMx_abs="8.487358" NOx_abs="153.839068" fuel_abs="30.059106"/>
    </tripinfo>
    <tripinfo id="209747_209747_441" depart="27033.00" departLane="4400462#1_0" departPos="5.10" departSpeed="0.00" departDelay="0.00" arrival="27050.00" arrivalLane="-32930555#2_0" arrivalPos="90.79" arrivalSpeed="13.41" duration="17.00" routeLength="85.69" waitSteps="0" rerouteNo="1" devices="tripinfo_209747_209747_441 hbefa_209747_209747_441" vType="DEFAULT_VEHTYPE" vaporized="">
        <emissions CO_abs="656.832822" CO2_abs="50854.691072