<?xml version="1.0" encoding="UTF-8"?>

<!-- generated on Mon Feb 24 15:36:51 2014 by SUMO sumo Version 0.19.0
<?xml version="1.0" encoding="UTF-8"?>

<configuration xmlns:xsi="http://www.w3.org/2001/XMLSchema-instance" xsi:noNamespaceSchemaLocation="http://sumo-sim.org/xsd/sumoConfiguration.xsd">

    <input>
        <net-file value="data/map.net.xml"/>
        <route-files value="data/map.rou.xml"/>
    </input>

    <output>
        <tripinfo-output value="data/maptripinfo.out.xml"/>
        <save-state.prefix value="data/state"/>
    </output>

    <time>
        <begin value="25200"/>
        <end value="26100"/>
    </time>

    <processing>
        <route-steps value="200"/>
        <scale value="0.8"/>
        <time-to-teleport value="300"/>
        <lanechange.allow-swap value="true"/>
    </processing>

    <report>
        <verbose value="true"/>
        <no-warnings value="false"/>
        <no-step-log value="true"/>
    </report>

    <emissions>
        <device.hbefa.probability value="1"/>
    </emissions>

    <routing>
        <device.rerouting.probability value="1"/>
    </routing>

</configuration>
-->

<tripinfos>
    <tripinfo id="160035_160035_421" depart="25200.00" departLane="8225127_0" departPos="5.10" departSpeed="0.00" departDelay="0.00" arrival="25206.00" arrivalLane="8225127_0" arrivalPos="38.87" arrivalSpeed="10.78" duration="6.00" routeLength="33.77" waitSteps="0" rerouteNo="1" devices="tripinfo_160035_160035_421 routing_160035_160035_421 hbefa_160035_160035_421" vType="DEFAULT_VEHTYPE" vaporized="">
        <emissions CO_abs="282.187433" CO2_abs="20527.432489" HC_abs="6.927039" PMx_abs="2.377353" NOx_abs="42.767571" fuel_abs="8.183969"/>
    </tripinfo>
    <tripinfo id="146065_146065_416" depart="25200.00" departLane="185767959#0_0" departPos="5.10" departSpeed="0.00" departDelay="0.00" arrival="25210.00" arrivalLane="9207798_1" arrivalPos="76.33" arrivalSpeed="17.71" duration="10.00" routeLength="90.29" waitSteps="0" rerouteNo="1" devices="tripinfo_146065_146065_416 routing_146065_146065_416 hbefa_146065_146065_416" vType="DEFAULT_VEHTYPE" vaporized="">
        <emissions CO_abs="760.024764" CO2_abs="49640.133083" HC_abs="16.681809" PMx_abs="6.277372" NOx_abs="107.710970" fuel_abs="19.790757"/>
    </tripinfo>
    <tripinfo id="135816_135816_411" depart="25200.00" departLane="23471158#6_0" departPos="5.10" departSpeed="0.00" departDelay="0.00" arrival="25218.00" arrivalLane="23471158#9_0" arrivalPos="213.75" arrivalSpeed="27.56" duration="18.00" routeLength="308.43" waitSteps="0" rerouteNo="1" devices="tripinfo_135816_135816_411 routing_135816_135816_411 hbefa_135816_135816_411" vType="DEFAULT_VEHTYPE" vaporized="">
        <emissions CO_abs="2256.980938" CO2_abs="132515.188313" HC_abs="43.896101" PMx_abs="16.749204" NOx_abs="295.597818" fuel_abs="52.831846"/>
    </tripinfo>
    <tripinfo id="100948_100948_396" depart="25200.00" departLane="154743410#2_0" departPos="5.10" departSpeed="0.00" departDelay="0.00" arrival="25220.00" arrivalLane="9207798_1" arrivalPos="76.33" arrivalSpeed="18.59" duration="20.00" routeLength="167.61" waitSteps="0" rerouteNo="1" devices="tripinfo_100948_100948_396 routing_100948_100948_396 hbefa_100948_100948_396" vType="DEFAULT_VEHTYPE" vaporized="">
        <emissions CO_abs="1374.956611" CO2_abs="85581.673639" HC_abs="29.084903" PMx_abs="11.474457" NOx_abs="189.129471" fuel_abs="34.120093"/>
    </tripinfo>
    <tripinfo id="106746_106746_399" depart="25200.00" departLane="180723491_0" departPos="5.10" departSpeed="0.00" departDelay="0.00" arrival="25222.00" arrivalLane="154743410#0_0" arrivalPos="108.34" arrivalSpeed="20.08" duration="22.00" routeLength="223.23" waitSteps="0" rerouteNo="1" devices="tripinfo_106746_106746_399 routing_106746_106746_399 hbefa_106746_106746_399" vType="DEFAULT_VEHTYPE" vaporized="">
        <emissions CO_abs="1604.961244" CO2_abs="102419.262551" HC_abs="34.273767" PMx_abs="13.249613" NOx_abs="224.534496" fuel_abs="40.832985"/>
    </tripinfo>
    <tripinfo id="137129_137129_412" depart="25207.00" departLane="154755085#0_0" departPos="5.10" departSpeed="0.00" departDelay="0.00" arrival="25223.00" arrivalLane="154755085#1_0" arrivalPos="144.95" arrivalSpeed="13.11" duration="16.00" routeLength="164.24" waitSteps="0" rerouteNo="1" devices="tripinfo_137129_137129_412 routing_137129_137129_412 hbefa_137129_137129_412" vType="DEFAULT_VEHTYPE" vaporized="">
        <emissions CO_abs="464.462358" CO2_abs="42058.804880" HC_abs="12.375665" PMx_abs="4.462706" NOx_abs="85.031486" fuel_abs="16.768202"/>
    </tripinfo>
    <tripinfo id="106717_106717_399" depart="25200.00" departLane="-154755100#1_0" departPos="5.10" departSpeed="0.00" departDelay="0.00" arrival="25224.00" arrivalLane="-154755100#0_0" arrivalPos="171.42" arrivalSpeed="13.18" duration="24.00" routeLength="263.89" waitSteps="0" rerouteNo="1" devices="tripinfo_106717_106717_399 routing_106717_106717_399 hbefa_106717_106717_399" vType="DEFAULT_VEHTYPE" vaporized="">
        <emissions CO_abs="549.990700" CO2_abs="52474.744882" HC_abs="15.105579" PMx_abs="5.230684" NOx_abs="104.772283" fuel_abs="20.920879"/>
    </tripinfo>
    <tripinfo id="71540_71540_383" depart="25200.00" departLane="150031262#0_0" departPos="5.10" departSpeed="0.00" departDelay="0.00" arrival="25231.00" arrivalLane="145575263_1" arrivalPos="260.32" arrivalSpeed="13.86" duration="31.00" routeLength="322.07" waitSteps="0" rerouteNo="1" devices="tripinfo_71540_71540_383 routing_71540_71540_383 hbefa_71540_71540_383" vType="DEFAULT_VEHTYPE" vaporized="">
        <emissions CO_abs="758.534240" CO2_abs="73046.910145" HC_abs="20.934793" PMx_abs="7.325051" NOx_abs="145.769518" fuel_abs="29.122687"/>
    </tripinfo>
    <tripinfo id="168852_168852_425" depart="25221.00" departLane="160971552_0" departPos="5.10" departSpeed="0.00" departDelay="4.00" arrival="25231.00" arrivalLane="160971552_0" arrivalPos="96.86" arrivalSpeed="19.92" duration="10.00" routeLength="91.76" waitSteps="0" rerouteNo="1" devices="tripinfo_168852_168852_425 routing_168852_168852_425 hbefa_168852_168852_425" vType="DEFAULT_VEHTYPE" vaporized="">
        <emissions CO_abs="1025.512106" CO2_abs="61972.675787" HC_abs="21.211506" PMx_abs="8.433438" NOx_abs="138.106915" fuel_abs="24.707553"/>
    </tripinfo>
    <tripinfo id="95486_95486_394" depart="25200.00" departLane="23799989#0_0" departPos="5.10" departSpeed="0.00" departDelay="0.00" arrival="25232.00" arrivalLane="4400200_0" arrivalPos="166.23" arrivalSpeed="13.69" duration="32.00" routeLength="289.53" waitSteps="0" rerouteNo="1" devices="tripinfo_95486_95486_394 routing_95486_95486_394 hbefa_95486_95486_394" vType="DEFAULT_VEHTYPE" vaporized="">
        <emissions CO_abs="674.600112" CO2_abs="59171.687060" HC_abs="17.911113" PMx_abs="6.122921" NOx_abs="119.389282" fuel_abs="23.590841"/>
    </tripinfo>
    <tripinfo id="145303_145303_416" depart="25208.00" departLane="-200671461_0" departPos="5.10" departSpeed="0.00" departDelay="0.00" arrival="25233.00" arrivalLane="-50061433_0" arrivalPos="60.25" arrivalSpeed="12.88" duration="25.00" routeLength="212.51" waitSteps="0" rerouteNo="1" devices="tripinfo_145303_145303_416 routing_145303_145303_416 hbefa_145303_145303_416" vType="DEFAULT_VEHTYPE" vaporized="">
        <emissions CO_abs="1008.592610" CO2_abs="77497.608786" HC_abs="24.370775" PMx_abs="9.035693" NOx_abs="162.069978" fuel_abs="30.897101"/>
    </tripinfo>
    <tripinfo id="102085_102085_396" depart="25202.00" departLane="154743410#2_0" departPos="5.10" departSpeed="0.00" departDelay="2.00" arrival="25234.00" arrivalLane="9207798_1" arrivalPos="76.33" arrivalSpeed="19.02" duration="32.00" routeLength="167.61" waitSteps="7" rerouteNo="1" devices="tripinfo_102085_102085_396 routing_102085_102085_396 hbefa_102085_102085_396" vType="DEFAULT_VEHTYPE" vaporized="">
        <emissions CO_abs="1469.257161" CO2_abs="92547.964629" HC_abs="32.432414" PMx_abs="12.063831" NOx_abs="201.478018" fuel_abs="36.897444"/>
    </tripinfo>
    <tripinfo id="116829_116829_404" depart="25200.00" departLane="4380937#2_0" departPos="5.10" departSpeed="0.00" departDelay="0.00" arrival="25234.00" arrivalLane="145575263_1" arrivalPos="260.32" arrivalSpeed="13.56" duration="34.00" routeLength="357.91" waitSteps="0" rerouteNo="1" devices="tripinfo_116829_116829_404 routing_116829_116829_404 hbefa_116829_116829_404" vType="DEFAULT_VEHTYPE" vaporized="">
        <emissions CO_abs="1074.109283" CO2_abs="88000.762519" HC_abs="26.569467" PMx_abs="10.058742" NOx_abs="182.425788" fuel_abs="35.084555"/>
    </tripinfo>
    <tripinfo id="136116_136116_411" depart="25219.00" departLane="154755085#0_0" departPos="5.10" departSpeed="0.00" departDelay="0.00" arrival="25236.00" arrivalLane="154755085#1_0" arrivalPos="144.95" arrivalSpeed="13.78" duration="17.00" routeLength="164.24" waitSteps="0" rerouteNo="1" devices="tripinfo_136116_136116_411 routing_136116_136116_411 hbefa_136116_136116_411" vType="DEFAULT_VEHTYPE" vaporized="">
        <emissions CO_abs="506.451875" CO2_abs="42974.290355" HC_abs="13.133569" PMx_abs="4.556360" NOx_abs="87.451193" fuel_abs="17.133190"/>
    </tripinfo>
    <tripinfo id="117072_117072_404" depart="25215.00" departLane="185767958#1_0" departPos="5.10" departSpeed="0.00" departDelay="15.00" arrival="25240.00" arrivalLane="36590979#0-AddedOffRampEdge_0" arrivalPos="103.44" arrivalSpeed="21.22" duration="25.00" routeLength="430.18" waitSteps="0" rerouteNo="1" devices="tripinfo_117072_117072_404 routing_117072_117072_404 hbefa_117072_117072_404" vType="DEFAULT_VEHTYPE" vaporized="">
        <emissions CO_abs="1971.041256" CO2_abs="127209.489637" HC_abs="40.487943" PMx_abs="15.317956" NOx_abs="277.734510" fuel_abs="50.716528"/>
    </tripinfo>
    <tripinfo id="149330_149330_417" depart="25200.00" departLane="154755085#0_0" departPos="5.10" departSpeed="0.00" departDelay="0.00" arrival="25241.00" arrivalLane="4400311#0_0" arrivalPos="280.07" arrivalSpeed="8.00" duration="41.00" routeLength="299.36" waitSteps="0" rerouteNo="1" devices="tripinfo_149330_149330_417 routing_149330_149330_417 hbefa_149330_149330_417" vType="DEFAULT_VEHTYPE" vaporized="">
        <emissions CO_abs="263.338744" CO2_abs="50069.886097" HC_abs="13.282370" PMx_abs="3.675156" NOx_abs="88.462698" fuel_abs="19.962090"/>
    </tripinfo>
    <tripinfo id="105046_105046_398" depart="25200.00" departLane="36454807#3-AddedOnRampEdge_0" departPos="5.10" departSpeed="0.00" departDelay="0.00" arrival="25241.00" arrivalLane="23471158#9_0" arrivalPos="213.75" arrivalSpeed="27.76" duration="41.00" routeLength="496.50" waitSteps="0" rerouteNo="1" devices="tripinfo_105046_105046_398 routing_105046_105046_398 hbefa_105046_105046_398" vType="DEFAULT_VEHTYPE" vaporized="">
        <emissions CO_abs="3063.542213" CO2_abs="186831.530581" HC_abs="62.341292" PMx_abs="23.534337" NOx_abs="412.238964" fuel_abs="74.486923"/>
    </tripinfo>
    <tripinfo id="161230_161230_421" depart="25228.00" departLane="28557537#1_0" departPos="5.10" departSpeed="0.00" departDelay="0.00" arrival="25242.00" arrivalLane="28557537#1_0" arrivalPos="170.84" arrivalSpeed="23.45" duration="14.00" routeLength="165.74" waitSteps="0" rerouteNo="1" devices="tripinfo_161230_161230_421 routing_161230_161230_421 hbefa_161230_161230_421" vType="DEFAULT_VEHTYPE" vaporized="">
        <emissions CO_abs="1301.165891" CO2_abs="83290.461536" HC_abs="27.544192" PMx_abs="10.268778" NOx_abs="181.677262" fuel_abs="33.206640"/>
    </tripinfo>
    <tripinfo id="113896_113896_402" depart="25203.00" departLane="4380937#0_0" departPos="5.10" departSpeed="0.00" departDelay="3.00" arrival="25243.00" arrivalLane="145575263_0" arrivalPos="260.32" arrivalSpeed="13.44" duration="40.00" routeLength="485.13" waitSteps="0" rerouteNo="1" devices="tripinfo_113896_113896_402 routing_113896_113896_402 hbefa_113896_113896_402" vType="DEFAULT_VEHTYPE" vaporized="">
        <emissions CO_abs="691.233661" CO2_abs="72264.991626" HC_abs="19.872485" PMx_abs="6.926520" NOx_abs="142.455237" fuel_abs="28.810953"/>
    </tripinfo>
    <tripinfo id="130658_130658_409" depart="25218.00" departLane="23799644_0" departPos="5.10" departSpeed="0.00" departDelay="0.00" arrival="25243.00" arrivalLane="4400449#0_0" arrivalPos="32.06" arrivalSpeed="13.31" duration="25.00" routeLength="218.58" waitSteps="0" rerouteNo="1" devices="tripinfo_130658_130658_409 routing_130658_130658_409 hbefa_130658_130658_409" vType="DEFAULT_VEHTYPE" vaporized="">
        <emissions CO_abs="827.932747" CO2_abs="64330.743148" HC_abs="20.257034" PMx_abs="7.285516" NOx_abs="133.771711" fuel_abs="25.647675"/>
    </tripinfo>
    <tripinfo id="106411_106411_399" depart="25204.00" departLane="154743410#2_0" departPos="5.10" departSpeed="0.00" departDelay="4.00" arrival="25244.00" arrivalLane="9207798_1" arrivalPos="76.33" arrivalSpeed="17.56" duration="40.00" routeLength="167.61" waitSteps="12" rerouteNo="1" devices="tripinfo_106411_106411_399 routing_106411_106411_399 hbefa_106411_106411_399" vType="DEFAULT_VEHTYPE" vaporized="">
        <emissions CO_abs="1308.415289" CO2_abs="84226.656819" HC_abs="30.036680" PMx_abs="10.659781" NOx_abs="180.732183" fuel_abs="33.579865"/>
    </tripinfo>
    <tripinfo id="147897_147897_416" depart="25223.00" departLane="23015529#0_0" departPos="5.10" departSpeed="0.00" departDelay="0.00" arrival="25244.00" arrivalLane="37866521#1_0" arrivalPos="52.00" arrivalSpeed="13.24" duration="21.00" routeLength="231.77" waitSteps="0" rerouteNo="1" devices="tripinfo_147897_147897_416 routing_147897_147897_416 hbefa_147897_147897_416" vType="DEFAULT_VEHTYPE" vaporized="">
        <emissions CO_abs="552.321055" CO2_abs="45346.942988" HC_abs="13.846142" PMx_abs="5.073587" NOx_abs="93.474280" fuel_abs="18.079131"/>
    </tripinfo>
    <tripinfo id="148292_148292_417" depart="25200.00" departLane="69366484#0_0" departPos="5.10" departSpeed="0.00" departDelay="0.00" arrival="25246.00" arrivalLane="23493260#7_0" arrivalPos="59.96" arrivalSpeed="13.63" duration="46.00" routeLength="451.35" waitSteps="0" rerouteNo="1" devices="tripinfo_148292_148292_417 routing_148292_148292_417 hbefa_148292_148292_417" vType="DEFAULT_VEHTYPE" vaporized="">
        <emissions CO_abs="1027.564339" CO2_abs="97761.695395" HC_abs="28.446239" PMx_abs="9.932078" NOx_abs="195.191618" fuel_abs="38.976089"/>
    </tripinfo>
    <tripinfo id="147145_147145_416" depart="25200.00" departLane="154755073#4_0" departPos="5.10" departSpeed="0.00" departDelay="0.00" arrival="25246.00" arrivalLane="2837877_0" arrivalPos="210.13" arrivalSpeed="8.13" duration="46.00" routeLength="336.64" waitSteps="0" rerouteNo="1" devices="tripinfo_147145_147145_416 routing_147145_147145_416 hbefa_147145_147145_416" vType="DEFAULT_VEHTYPE" vaporized="">
        <emissions CO_abs="431.052080" CO2_abs="54087.288125" HC_abs="15.532124" PMx_abs="4.635291" NOx_abs="100.979691" fuel_abs="21.563765"/>
    </tripinfo>
    <tripinfo id="114306_114306_402" depart="25200.00" departLane="36564599_0" departPos="5.10" departSpeed="0.00" departDelay="0.00" arrival="25247.00" arrivalLane="36564599_0" arrivalPos="101.75" arrivalSpeed="2.33" duration="47.00" routeLength="96.65" waitSteps="0" rerouteNo="1" devices="tripinfo_114306_114306_402 routing_114306_114306_402 hbefa_114306_114306_402" vType="DEFAULT_VEHTYPE" vaporized="">
        <emissions CO_abs="172.278154" CO2_abs="23585.908579" HC_abs="9.087602" PMx_abs="1.405815" NOx_abs="38.250268" fuel_abs="9.403334"/>
    </tripinfo>
    <tripinfo id="87270_87270_391" depart="25203.00" departLane="36454807#3-AddedOnRampEdge_0" departPos="5.10" departSpeed="0.00" departDelay="3.00" arrival="25250.00" arrivalLane="23471158#9_0" arrivalPos="213.75" arrivalSpeed="27.48" duration="47.00" routeLength="483.75" waitSteps="0" rerouteNo="1" devices="tripinfo_87270_87270_391 routing_87270_87270_391 hbefa_87270_87270_391" vType="DEFAULT_VEHTYPE" vaporized="">
        <emissions CO_abs="3055.157207" CO2_abs="193301.912402" HC_abs="64.052052" PMx_abs="24.123396" NOx_abs="422.824335" fuel_abs="77.066545"/>
    </tripinfo>
    <tripinfo id="145277_145277_416" depart="25203.00" departLane="145474195#0_0" departPos="5.10" departSpeed="0.00" departDelay="3.00" arrival="25251.00" arrivalLane="145575263_0" arrivalPos="260.32" arrivalSpeed="13.69" duration="48.00" routeLength="585.88" waitSteps="0" rerouteNo="1" devices="tripinfo_145277_145277_416 routing_145277_145277_416 hbefa_145277_145277_416" vType="DEFAULT_VEHTYPE" vaporized="">
        <emissions CO_abs="859.438402" CO2_abs="93717.368713" HC_abs="25.185126" PMx_abs="8.842513" NOx_abs="183.987608" fuel_abs="37.363692"/>
    </tripinfo>
    <tripinfo id="126578_126578_407" depart="25217.00" departLane="154743410#2_0" departPos="5.10" departSpeed="0.00" departDelay="17.00" arrival="25252.00" arrivalLane="9207798_1" arrivalPos="76.33" arrivalSpeed="17.63" duration="35.00" routeLength="167.61" waitSteps="12" rerouteNo="1" devices="tripinfo_126578_126578_407 routing_126578_126578_407 hbefa_126578_126578_407" vType="DEFAULT_VEHTYPE" vaporized="">
        <emissions CO_abs="1493.422022" CO2_abs="92955.048486" HC_abs="33.842286" PMx_abs="12.075043" NOx_abs="200.975883" fuel_abs="37.059739"/>
    </tripinfo>
    <tripinfo id="145302_145302_416" depart="25215.00" departLane="150031221_0" departPos="5.10" departSpeed="0.00" departDelay="0.00" arrival="25252.00" arrivalLane="150031221_0" arrivalPos="279.03" arrivalSpeed="7.93" duration="37.00" routeLength="273.93" waitSteps="0" rerouteNo="1" devices="tripinfo_145302_145302_416 routing_145302_145302_416 hbefa_145302_145302_416" vType="DEFAULT_VEHTYPE" vaporized="">
        <emissions CO_abs="329.278567" CO2_abs="42269.111127" HC_abs="12.032335" PMx_abs="3.640163" NOx_abs="78.843232" fuel_abs="16.852041"/>
    </tripinfo>
    <tripinfo id="108143_108143_400" depart="25221.00" departLane="23799644_0" departPos="5.10" departSpeed="0.00" departDelay="0.00" arrival="25252.00" arrivalLane="64487982#4_0" arrivalPos="68.97" arrivalSpeed="7.75" duration="31.00" routeLength="255.49" waitSteps="0" rerouteNo="1" devices="tripinfo_108143_108143_400 routing_108143_108143_400 hbefa_108143_108143_400" vType="DEFAULT_VEHTYPE" vaporized="">
        <emissions CO_abs="670.328178" CO2_abs="60246.624306" HC_abs="18.326165" PMx_abs="6.436788" NOx_abs="121.174271" fuel_abs="24.019399"/>
    </tripinfo>
    <tripinfo id="136568_136568_411" depart="25232.00" departLane="8225144#1_0" departPos="5.10" departSpeed="0.00" departDelay="0.00" arrival="25252.00" arrivalLane="23015778_0" arrivalPos="93.11" arrivalSpeed="13.42" duration="20.00" routeLength="223.78" waitSteps="0" rerouteNo="1" devices="tripinfo_136568_136568_411 routing_136568_136568_411 hbefa_136568_136568_411" vType="DEFAULT_VEHTYPE" vaporized="">
        <emissions CO_abs="497.124092" CO2_abs="48850.241387" HC_abs="13.827394" PMx_abs="4.916048" NOx_abs="97.431385" fuel_abs="19.475846"/>
    </tripinfo>
    <tripinfo id="122923_122923_406" depart="25200.00" departLane="36454807#1_0" departPos="5.10" departSpeed="0.00" departDelay="0.00" arrival="25253.00" arrivalLane="23471158#9_0" arrivalPos="213.75" arrivalSpeed="27.20" duration="53.00" routeLength="534.80" waitSteps="2" rerouteNo="1" devices="tripinfo_122923_122923_406 routing_122923_122923_406 hbefa_122923_122923_406" vType="DEFAULT_VEHTYPE" vaporized="">
        <emissions CO_abs="3383.840211" CO2_abs="204719.720301" HC_abs="69.419427" PMx_abs="26.449803" NOx_abs="452.572280" fuel_abs="81.618660"/>
    </tripinfo>
    <tripinfo id="106412_106412_399" depart="25200.00" departLane="4380937#0_0" departPos="5.10" departSpeed="0.00" departDelay="0.00" arrival="25254.00" arrivalLane="145575263_1" arrivalPos="260.32" arrivalSpeed="13.03" duration="54.00" routeLength="481.40" waitSteps="6" rerouteNo="1" devices="tripinfo_106412_106412_399 routing_106412_106412_399 hbefa_106412_106412_399" vType="DEFAULT_VEHTYPE" vaporized="">
        <emissions CO_abs="1054.779144" CO2_abs="98275.386591" HC_abs="29.247195" PMx_abs="9.825020" NOx_abs="195.725829" fuel_abs="39.180893"/>
    </tripinfo>
    <tripinfo id="155268_155268_420" depart="25200.00" departLane="150039002#2_0" departPos="5.10" departSpeed="0.00" departDelay="0.00" arrival="25258.00" arrivalLane="36590979#4_0" arrivalPos="41.97" arrivalSpeed="22.08" duration="58.00" routeLength="538.03" waitSteps="12" rerouteNo="1" devices="tripinfo_155268_155268_420 routing_155268_155268_420 hbefa_155268_155268_420" vType="DEFAULT_VEHTYPE" vaporized="">
        <emissions CO_abs="1968.422894" CO2_abs="144876.370716" HC_abs="46.427771" PMx_abs="16.155711" NOx_abs="302.716201" fuel_abs="57.760019"/>
    </tripinfo>
    <tripinfo id="128656_128656_408" depart="25202.00" departLane="36454807#3-AddedOnRampEdge_0" departPos="5.10" departSpeed="0.00" departDelay="2.00" arrival="25259.00" arrivalLane="129833339#1_0" arrivalPos="41.68" arrivalSpeed="13.41" duration="57.00" routeLength="728.25" waitSteps="0" rerouteNo="1" devices="tripinfo_128656_128656_408 routing_128656_128656_408 hbefa_128656_128656_408" vType="DEFAULT_VEHTYPE" vaporized="">
        <emissions CO_abs="3135.015622" CO2_abs="208155.748662" HC_abs="66.845446" PMx_abs="25.955259" NOx_abs="452.624094" fuel_abs="82.988541"/>
    </tripinfo>
    <tripinfo id="109590_109590_401" depart="25202.00" departLane="150031205#1_0" departPos="5.10" departSpeed="0.00" departDelay="2.00" arrival="25260.00" arrivalLane="145575263_1" arrivalPos="260.32" arrivalSpeed="13.24" duration="58.00" routeLength="682.40" waitSteps="0" rerouteNo="1" devices="tripinfo_109590_109590_401 routing_109590_109590_401 hbefa_109590_109590_401" vType="DEFAULT_VEHTYPE" vaporized="">
        <emissions CO_abs="1088.421346" CO2_abs="119357.633881" HC_abs="32.303009" PMx_abs="11.065815" NOx_abs="233.418224" fuel_abs="47.586073"/>
    </tripinfo>
    <tripinfo id="141739_141739_415" depart="25200.00" departLane="23471151#1_0" departPos="5.10" departSpeed="0.00" departDelay="0.00" arrival="25260.00" arrivalLane="8225102_0" arrivalPos="87.82" arrivalSpeed="7.61" duration="60.00" routeLength="732.25" waitSteps="0" rerouteNo="1" devices="tripinfo_141739_141739_415 routing_141739_141739_415 hbefa_141739_141739_415" vType="DEFAULT_VEHTYPE" vaporized="">
        <emissions CO_abs="2653.596337" CO2_abs="180786.796548" HC_abs="57.704957" PMx_abs="21.851327" NOx_abs="389.243875" fuel_abs="72.076958"/>
    </tripinfo>
    <tripinfo id="149028_149028_417" depart="25233.00" departLane="-200671461_0" departPos="5.10" departSpeed="0.00" departDelay="0.00" arrival="25261.00" arrivalLane="-22873531#1_0" arrivalPos="92.66" arrivalSpeed="13.54" duration="28.00" routeLength="244.92" waitSteps="0" rerouteNo="1" devices="tripinfo_149028_149028_417 routing_149028_149028_417 hbefa_149028_149028_417" vType="DEFAULT_VEHTYPE" vaporized="">
        <emissions CO_abs="1004.523755" CO2_abs="79284.991606" HC_abs="24.744309" PMx_abs="9.018294" NOx_abs="164.636493" fuel_abs="31.609704"/>
    </tripinfo>
    <tripinfo id="116049_116049_403" depart="25205.00" departLane="150031205#1_0" departPos="5.10" departSpeed="0.00" departDelay="5.00" arrival="25263.00" arrivalLane="145575263_1" arrivalPos="260.32" arrivalSpeed="12.92" duration="58.00" routeLength="682.40" waitSteps="0" rerouteNo="1" devices="tripinfo_116049_116049_403 routing_116049_116049_403 hbefa_116049_116049_403" vType="DEFAULT_VEHTYPE" vaporized="">
        <emissions CO_abs="1079.607714" CO2_abs="117598.771872" HC_abs="31.743484" PMx_abs="11.419070" NOx_abs="231.255456" fuel_abs="46.884842"/>
    </tripinfo>
    <tripinfo id="119400_119400_405" depart="25211.00" departLane="154743410#1_0" departPos="5.10" departSpeed="0.00" departDelay="11.00" arrival="25263.00" arrivalLane="187965761#0_0" arrivalPos="97.49" arrivalSpeed="7.48" duration="52.00" routeLength="355.85" waitSteps="2" rerouteNo="1" devices="tripinfo_119400_119400_405 routing_119400_119400_405 hbefa_119400_119400_405" vType="DEFAULT_VEHTYPE" vaporized="">
        <emissions CO_abs="990.832997" CO2_abs="88144.795220" HC_abs="27.123447" PMx_abs="9.360966" NOx_abs="176.870934" fuel_abs="35.141970"/>
    </tripinfo>
    <tripinfo id="128669_128669_408" depart="25201.00" departLane="151057637#2_0" departPos="5.10" departSpeed="0.00" departDelay="0.00" arrival="25266.00" arrivalLane="23471158#9_0" arrivalPos="213.75" arrivalSpeed="26.64" duration="65.00" routeLength="904.86" waitSteps="0" rerouteNo="1" devices="tripinfo_128669_128669_408 routing_128669_128669_408 hbefa_128669_128669_408" vType="DEFAULT_VEHTYPE" vaporized="">
        <emissions CO_abs="4479.820558" CO2_abs="283709.283635" HC_abs="92.230015" PMx_abs="34.837274" NOx_abs="621.282054" fuel_abs="113.110637"/>
    </tripinfo>
    <tripinfo id="174347_174347_427" depart="25256.00" departLane="23015778_0" departPos="5.10" departSpeed="0.00" departDelay="0.00" arrival="25266.00" arrivalLane="23015778_0" arrivalPos="93.11" arrivalSpeed="13.74" duration="10.00" routeLength="88.01" waitSteps="0" rerouteNo="1" devices="tripinfo_174347_174347_427 routing_174347_174347_427 hbefa_174347_174347_427" vType="DEFAULT_VEHTYPE" vaporized="">
        <emissions CO_abs="479.223979" CO2_abs="34001.102225" HC_abs="11.158745" PMx_abs="4.082153" NOx_abs="72.121596" fuel_abs="13.555714"/>
    </tripinfo>
    <tripinfo id="150894_150894_418" depart="25239.00" departLane="-175607927#0_0" departPos="5.10" departSpeed="0.00" departDelay="0.00" arrival="25267.00" arrivalLane="4400305_1" arrivalPos="163.40" arrivalSpeed="13.63" duration="28.00" routeLength="301.08" waitSteps="0" rerouteNo="1" devices="tripinfo_150894_150894_418 routing_150894_150894_418 hbefa_150894_150894_418" vType="DEFAULT_VEHTYPE" vaporized="">
        <emissions CO_abs="848.113200" CO2_abs="68581.143172" HC_abs="20.992540" PMx_abs="7.654730" NOx_abs="141.868893" fuel_abs="27.342248"/>
    </tripinfo>
    <tripinfo id="103997_103997_397" depart="25200.00" departLane="145474195#0_0" departPos="5.10" departSpeed="0.00" departDelay="0.00" arrival="25267.00" arrivalLane="145575263_1" arrivalPos="260.32" arrivalSpeed="12.77" duration="67.00" routeLength="582.15" waitSteps="7" rerouteNo="1" devices="tripinfo_103997_103997_397 routing_103997_103997_397 hbefa_103997_103997_397" vType="DEFAULT_VEHTYPE" vaporized="">
        <emissions CO_abs="1173.315085" CO2_abs="107220.586232" HC_abs="31.710390" PMx_abs="11.091524" NOx_abs="215.474265" fuel_abs="42.747208"/>
    </tripinfo>
    <tripinfo id="115398_115398_403" depart="25212.00" departLane="185767958#1_0" departPos="5.10" departSpeed="0.00" departDelay="12.00" arrival="25268.00" arrivalLane="23471158#9_0" arrivalPos="213.75" arrivalSpeed="27.74" duration="56.00" routeLength="782.30" waitSteps="0" rerouteNo="1" devices="tripinfo_115398_115398_403 routing_115398_115398_403 hbefa_115398_115398_403" vType="DEFAULT_VEHTYPE" vaporized="">
        <emissions CO_abs="4809.254064" CO2_abs="284933.010462" HC_abs="95.348973" PMx_abs="36.970708" NOx_abs="636.008467" fuel_abs="113.598514"/>
    </tripinfo>
    <tripinfo id="140838_140838_414" depart="25200.00" departLane="165511531#1_0" departPos="5.10" departSpeed="0.00" departDelay="0.00" arrival="25271.00" arrivalLane="23493260#7_0" arrivalPos="59.96" arrivalSpeed="13.75" duration="71.00" routeLength="689.80" waitSteps="0" rerouteNo="1" devices="tripinfo_140838_140838_414 routing_140838_140838_414 hbefa_140838_140838_414" vType="DEFAULT_VEHTYPE" vaporized="">
        <emissions CO_abs="1499.370668" CO2_abs="144657.897004" HC_abs="41.622086" PMx_abs="14.560065" NOx_abs="288.463994" fuel_abs="57.672887"/>
    </tripinfo>
    <tripinfo id="143430_143430_415" depart="25205.00" departLane="151057637#2_0" departPos="5.10" departSpeed="0.00" departDelay="0.00" arrival="25271.00" arrivalLane="23471158#9_0" arrivalPos="213.75" arrivalSpeed="26.88" duration="66.00" routeLength="904.86" waitSteps="0" rerouteNo="1" devices="tripinfo_143430_143430_415 routing_143430_143430_415 hbefa_143430_143430_415" vType="DEFAULT_VEHTYPE" vaporized="">
        <emissions CO_abs="4842.365493" CO2_abs="305135.586705" HC_abs="99.361263" PMx_abs="37.881070" NOx_abs="670.047105" fuel_abs="121.652975"/>
    </tripinfo>
    <tripinfo id="128373_128373_408" depart="25239.00" departLane="22873499#0_0" departPos="5.10" departSpeed="0.00" departDelay="0.00" arrival="25273.00" arrivalLane="-22873540#5_0" arrivalPos="187.63" arrivalSpeed="13.23" duration="34.00" routeLength="370.16" waitSteps="0" rerouteNo="1" devices="tripinfo_128373_128373_408 routing_128373_128373_408 hbefa_128373_128373_408" vType="DEFAULT_VEHTYPE" vaporized="">
        <emissions CO_abs="982.485631" CO2_abs="84760.498999" HC_abs="25.023436" PMx_abs="9.387242" NOx_abs="173.843996" fuel_abs="33.792713"/>
    </tripinfo>
    <tripinfo id="142640_142640_415" depart="25200.00" departLane="8096212#1_0" departPos="5.10" departSpeed="0.00" departDelay="0.00" arrival="25274.00" arrivalLane="23493260#7_0" arrivalPos="59.96" arrivalSpeed="13.17" duration="74.00" routeLength="713.59" waitSteps="0" rerouteNo="1" devices="tripinfo_142640_142640_415 routing_142640_142640_415 hbefa_142640_142640_415" vType="DEFAULT_VEHTYPE" vaporized="">
        <emissions CO_abs="1654.258096" CO2_abs="149643.639136" HC_abs="44.130128" PMx_abs="15.844565" NOx_abs="302.547070" fuel_abs="59.660622"/>
    </tripinfo>
    <tripinfo id="147629_147629_416" depart="25234.00" departLane="31694310#0_0" departPos="5.10" departSpeed="0.00" departDelay="5.00" arrival="25275.00" arrivalLane="-150031186_0" arrivalPos="162.24" arrivalSpeed="12.82" duration="41.00" routeLength="438.54" waitSteps="0" rerouteNo="1" devices="tripinfo_147629_147629_416 routing_147629_147629_416 hbefa_147629_147629_416" vType="DEFAULT_VEHTYPE" vaporized="">
        <emissions CO_abs="2002.027720" CO2_abs="136724.119737" HC_abs="44.181942" PMx_abs="17.161867" NOx_abs="295.502665" fuel_abs="54.509807"/>
    </tripinfo>