<?xml version="1.0" encoding="UTF-8"?>

<!-- generated on Wed Apr 30 15:28:32 2014 by SUMO sumo Version 0.19.0
<?xml version="1.0" encoding="UTF-8"?>

<configuration xmlns:xsi="http://www.w3.org/2001/XMLSchema-instance" xsi:noNamespaceSchemaLocation="http://sumo-sim.org/xsd/sumoConfiguration.xsd">

    <input>
        <net-file value="data/map.net.xml"/>
        <route-files value="data/map.rou.xml"/>
    </input>

    <output>
        <tripinfo-output value="data/maptripinfo.out.xml"/>
        <save-state.prefix value="data/state"/>
    </output>

    <time>
        <begin value="27000"/>
        <end value="27900"/>
    </time>

    <processing>
        <route-steps value="200"/>
        <scale value="0.8"/>
        <time-to-teleport value="300"/>
        <lanechange.allow-swap value="true"/>
    </processing>

    <report>
        <verbose value="true"/>
        <no-warnings value="true"/>
        <no-step-log value="true"/>
    </report>

    <emissions>
        <device.hbefa.probability value="1"/>
    </emissions>

    <traci_server>
        <remote-port value="8814"/>
    </traci_server>

</configuration>
-->

<tripinfos>
    <tripinfo id="136022_136022_411" depart="27003.00" departLane="23800191#2_0" departPos="5.10" departSpeed="0.00" departDelay="3.00" arrival="27009.00" arrivalLane="23800191#2_0" arrivalPos="38.41" arrivalSpeed="10.31" duration="6.00" routeLength="33.31" waitSteps="0" rerouteNo="1" devices="tripinfo_136022_136022_411 hbefa_136022_136022_411" vType="DEFAULT_VEHTYPE" vaporized="">
        <emissions CO_abs="261.768338" CO2_abs="19104.399390" HC_abs="6.523361" PMx_abs="2.195621" NOx_abs="39.603054" fuel_abs="7.616627"/>
    </tripinfo>
    <tripinfo id="182087_182087_431" depart="27000.00" departLane="4380937#2_0" departPos="5.10" departSpeed="0.00" departDelay="0.00" arrival="27011.00" arrivalLane="4380937#3_0" arrivalPos="72.76" arrivalSpeed="13.35" duration="11.00" routeLength="67.66" waitSteps="0" rerouteNo="2" devices="tripinfo_182087_182087_431 hbefa_182087_182087_431" vType="DEFAULT_VEHTYPE" vaporized="">
        <emissions CO_abs="449.897644" CO2_abs="37145.470908" HC_abs="11.362609" PMx_abs="4.172577" NOx_abs="76.519245" fuel_abs="14.809329"/>
    </tripinfo>
    <tripinfo id="105435_105435_398" depart="27003.00" departLane="145474196#1_0" departPos="5.10" departSpeed="0.00" departDelay="3.00" arrival="27014.00" arrivalLane="145474196#1_0" arrivalPos="94.12" arrivalSpeed="10.29" duration="11.00" routeLength="89.02" waitSteps="0" rerouteNo="1" devices="tripinfo_105435_105435_398 hbefa_105435_105435_398" vType="DEFAULT_VEHTYPE" vaporized="">
        <emissions CO_abs="571.947487" CO2_abs="38640.419304" HC_abs="12.963262" PMx_abs="4.982543" NOx_abs="83.287927" fuel_abs="15.405337"/>
    </tripinfo>
    <tripinfo id="72912_72912_384" depart="27003.00" departLane="9207803_0" departPos="5.10" departSpeed="0.00" departDelay="3.00" arrival="27014.00" arrivalLane="9207803_0" arrivalPos="69.23" arrivalSpeed="8.22" duration="11.00" routeLength="64.13" waitSteps="0" rerouteNo="0" devices="tripinfo_72912_72912_384 hbefa_72912_72912_384" vType="DEFAULT_VEHTYPE" vaporized="">
        <emissions CO_abs="277.280447" CO2_abs="24493.887246" HC_abs="7.792154" PMx_abs="2.596803" NOx_abs="48.786442" fuel_abs="9.765333"/>
    </tripinfo>
    <tripinfo id="92380_92380_392" depart="27000.00" departLane="-154755073#3_0" departPos="5.10" departSpeed="0.00" departDelay="0.00" arrival="27015.00" arrivalLane="-154755073#3_0" arrivalPos="102.52" arrivalSpeed="7.55" duration="15.00" routeLength="97.42" waitSteps="0" rerouteNo="1" devices="tripinfo_92380_92380_392 hbefa_92380_92380_392" vType="DEFAULT_VEHTYPE" vaporized="">
        <emissions CO_abs="203.508993" CO2_abs="21093.885085" HC_abs="6.498531" PMx_abs="2.023956" NOx_abs="40.483464" fuel_abs="8.409805"/>
    </tripinfo>
    <tripinfo id="251564_251564_457" depart="27002.00" departLane="51113317_0" departPos="5.10" departSpeed="0.00" departDelay="0.00" arrival="27015.00" arrivalLane="51113317_0" arrivalPos="125.08" arrivalSpeed="12.96" duration="13.00" routeLength="119.98" waitSteps="0" rerouteNo="1" devices="tripinfo_251564_251564_457 hbefa_251564_251564_457" vType="DEFAULT_VEHTYPE" vaporized="">
        <emissions CO_abs="390.839928" CO2_abs="34342.301215" HC_abs="10.355099" PMx_abs="3.618407" NOx_abs="69.414897" fuel_abs="13.691748"/>
    </tripinfo>
    <tripinfo id="105964_105964_399" depart="27006.00" departLane="145474196#1_0" departPos="5.10" departSpeed="0.00" departDelay="6.00" arrival="27016.00" arrivalLane="145474196#1_0" arrivalPos="94.12" arrivalSpeed="13.48" duration="10.00" routeLength="89.02" waitSteps="0" rerouteNo="1" devices="tripinfo_105964_105964_399 hbefa_105964_105964_399" vType="DEFAULT_VEHTYPE" vaporized="">
        <emissions CO_abs="566.319974" CO2_abs="38186.473377" HC_abs="12.708117" PMx_abs="4.765285" NOx_abs="82.241350" fuel_abs="15.224356"/>
    </tripinfo>
    <tripinfo id="84049_84049_390" depart="27006.00" departLane="9207803_0" departPos="5.10" departSpeed="0.00" departDelay="6.00" arrival="27016.00" arrivalLane="9207803_0" arrivalPos="69.23" arrivalSpeed="8.25" duration="10.00" routeLength="64.13" waitSteps="0" rerouteNo="1" devices="tripinfo_84049_84049_390 hbefa_84049_84049_390" vType="DEFAULT_VEHTYPE" vaporized="">
        <emissions CO_abs="186.004639" CO2_abs="17799.757747" HC_abs="5.586325" PMx_abs="1.755275" NOx_abs="34.718164" fuel_abs="7.096487"/>
    </tripinfo>
    <tripinfo id="232041_232041_451" depart="27002.00" departLane="28523795_0" departPos="5.10" departSpeed="0.00" departDelay="0.00" arrival="27019.00" arrivalLane="28523795_0" arrivalPos="192.02" arrivalSpeed="13.41" duration="17.00" routeLength="186.92" waitSteps="0" rerouteNo="1" devices="tripinfo_232041_232041_451 hbefa_232041_232041_451" vType="DEFAULT_VEHTYPE" vaporized="">
        <emissions CO_abs="501.179820" CO2_abs="41997.466210" HC_abs="12.771644" PMx_abs="4.496855" NOx_abs="85.920973" fuel_abs="16.743745"/>
    </tripinfo>
    <tripinfo id="135880_135880_411" depart="27000.00" departLane="150039002#2_0" departPos="5.10" departSpeed="0.00" departDelay="0.00" arrival="27022.00" arrivalLane="150039002#2_0" arrivalPos="249.40" arrivalSpeed="13.46" duration="22.00" routeLength="244.30" waitSteps="0" rerouteNo="1" devices="tripinfo_135880_135880_411 hbefa_135880_135880_411" vType="DEFAULT_VEHTYPE" vaporized="">
        <emissions CO_abs="518.342903" CO2_abs="56161.447109" HC_abs="15.333212" PMx_abs="5.371304" NOx_abs="110.178469" fuel_abs="22.390714"/>
    </tripinfo>
    <tripinfo id="219187_219187_446" depart="27000.00" departLane="144935690_0" departPos="5.10" departSpeed="0.00" departDelay="0.00" arrival="27022.00" arrivalLane="25997632_0" arrivalPos="136.14" arrivalSpeed="12.84" duration="22.00" routeLength="131.04" waitSteps="0" rerouteNo="3" devices="tripinfo_219187_219187_446 hbefa_219187_219187_446" vType="DEFAULT_VEHTYPE" vaporized="">
        <emissions CO_abs="520.443381" CO2_abs="48718.417945" HC_abs="14.220230" PMx_abs="4.883829" NOx_abs="97.466808" fuel_abs="19.423288"/>
    </tripinfo>
    <tripinfo id="110327_110327_401" depart="27000.00" departLane="53212166#0_0" departPos="5.10" departSpeed="0.00" departDelay="0.00" arrival="27023.00" arrivalLane="28542995#2_2" arrivalPos="61.74" arrivalSpeed="12.76" duration="23.00" routeLength="56.64" waitSteps="0" rerouteNo="4" devices="tripinfo_110327_110327_401 hbefa_110327_110327_401" vType="DEFAULT_VEHTYPE" vaporized="">
        <emissions CO_abs="558.993865" CO2_abs="53354.644721" HC_abs="15.437867" PMx_abs="5.588956" NOx_abs="106.896242" fuel_abs="21.271679"/>
    </tripinfo>
    <tripinfo id="75851_75851_386" depart="27002.00" departLane="28542995#2_0" departPos="5.10" departSpeed="0.00" departDelay="2.00" arrival="27023.00" arrivalLane="23493181#0_0" arrivalPos="88.20" arrivalSpeed="8.34" duration="21.00" routeLength="83.10" waitSteps="0" rerouteNo="2" devices="tripinfo_75851_75851_386 hbefa_75851_75851_386" vType="DEFAULT_VEHTYPE" vaporized="">
        <emissions CO_abs="756.282975" CO2_abs="52175.740868" HC_abs="17.528182" PMx_abs="6.538079" NOx_abs="111.390368" fuel_abs="20.801659"/>
    </tripinfo>
    <tripinfo id="206737_206737_440" depart="27007.00" departLane="-29206900_0" departPos="5.10" departSpeed="0.00" departDelay="0.00" arrival="27023.00" arrivalLane="29207110_0" arrivalPos="28.94" arrivalSpeed="12.40" duration="16.00" routeLength="23.84" waitSteps="0" rerouteNo="2" devices="tripinfo_206737_206737_440 hbefa_206737_206737_440" vType="DEFAULT_VEHTYPE" vaporized="">
        <emissions CO_abs="519.639476" CO2_abs="40849.503542" HC_abs="13.173465" PMx_abs="4.615651" NOx_abs="84.094746" fuel_abs="16.286064"/>
    </tripinfo>
    <tripinfo id="225242_225242_449" depart="27000.00" departLane="154755124_0" departPos="5.10" departSpeed="0.00" departDelay="0.00" arrival="27024.00" arrivalLane="4380937#3_1" arrivalPos="72.76" arrivalSpeed="13.86" duration="24.00" routeLength="67.66" waitSteps="0" rerouteNo="3" devices="tripinfo_225242_225242_449 hbefa_225242_225242_449" vType="DEFAULT_VEHTYPE" vaporized="">
        <emissions CO_abs="685.334131" CO2_abs="56692.999225" HC_abs="17.698491" PMx_abs="6.066377" NOx_abs="115.605836" fuel_abs="22.602624"/>
    </tripinfo>
    <tripinfo id="141415_141415_415" depart="27003.00" departLane="150039002#2_0" departPos="5.10" departSpeed="0.00" departDelay="3.00" arrival="27025.00" arrivalLane="150039002#2_0" arrivalPos="249.40" arrivalSpeed="13.44" duration="22.00" routeLength="244.30" waitSteps="0" rerouteNo="1" devices="tripinfo_141415_141415_415 hbefa_141415_141415_415" vType="DEFAULT_VEHTYPE" vaporized="">
        <emissions CO_abs="576.662428" CO2_abs="52135.616709" HC_abs="15.219563" PMx_abs="5.377610" NOx_abs="105.327798" fuel_abs="20.785673"/>
    </tripinfo>
    <tripinfo id="225541_225541_450" depart="27000.00" departLane="9207803_0" departPos="5.10" departSpeed="0.00" departDelay="0.00" arrival="27025.00" arrivalLane="154755073#3_0" arrivalPos="102.52" arrivalSpeed="7.28" duration="25.00" routeLength="97.42" waitSteps="0" rerouteNo="2" devices="tripinfo_225541_225541_450 hbefa_225541_225541_450" vType="DEFAULT_VEHTYPE" vaporized="">
        <emissions CO_abs="281.800264" CO2_abs="35484.381333" HC_abs="10.300600" PMx_abs="3.034280" NOx_abs="65.838668" fuel_abs="14.147073"/>
    </tripinfo>
    <tripinfo id="148867_148867_417" depart="27006.00" departLane="3065455_0" departPos="5.10" departSpeed="0.00" departDelay="6.00" arrival="27025.00" arrivalLane="23800191#0_0" arrivalPos="143.94" arrivalSpeed="13.18" duration="19.00" routeLength="138.84" waitSteps="0" rerouteNo="2" devices="tripinfo_148867_148867_417 hbefa_148867_148867_417" vType="DEFAULT_VEHTYPE" vaporized="">
        <emissions CO_abs="543.650677" CO2_abs="46802.338364" HC_abs="14.142631" PMx_abs="4.974761" NOx_abs="95.189028" fuel_abs="18.659375"/>
    </tripinfo>
    <tripinfo id="136596_136596_411" depart="27003.00" departLane="131651824_0" departPos="5.10" departSpeed="0.00" departDelay="3.00" arrival="27027.00" arrivalLane="4400211#0_0" arrivalPos="197.56" arrivalSpeed="11.78" duration="24.00" routeLength="192.46" waitSteps="0" rerouteNo="2" devices="tripinfo_136596_136596_411 hbefa_136596_136596_411" vType="DEFAULT_VEHTYPE" vaporized="">
        <emissions CO_abs="708.454586" CO2_abs="60885.087053" HC_abs="18.214125" PMx_abs="6.576291" NOx_abs="124.413570" fuel_abs="24.273950"/>
    </tripinfo>
    <tripinfo id="220353_220353_447" depart="27001.00" departLane="-165515969#3_0" departPos="5.10" departSpeed="0.00" departDelay="0.00" arrival="27027.00" arrivalLane="-165511531#0_0" arrivalPos="53.73" arrivalSpeed="13.62" duration="26.00" routeLength="48.63" waitSteps="0" rerouteNo="3" devices="tripinfo_220353_220353_447 hbefa_220353_220353_447" vType="DEFAULT_VEHTYPE" vaporized="">
        <emissions CO_abs="2256.117129" CO2_abs="134692.404516" HC_abs="45.411200" PMx_abs="17.706932" NOx_abs="300.371491" fuel_abs="53.699821"/>
    </tripinfo>
    <tripinfo id="188835_188835_434" depart="27006.00" departLane="187965762#1_0" departPos="5.10" departSpeed="0.00" departDelay="6.00" arrival="27029.00" arrivalLane="187965762#2_0" arrivalPos="85.18" arrivalSpeed="8.24" duration="23.00" routeLength="80.08" waitSteps="0" rerouteNo="2" devices="tripinfo_188835_188835_434 hbefa_188835_188835_434" vType="DEFAULT_VEHTYPE" vaporized="">
        <emissions CO_abs="258.897861" CO2_abs="29174.808304" HC_abs="8.616924" PMx_abs="2.616604" NOx_abs="55.287310" fuel_abs="11.631544"/>
    </tripinfo>
    <tripinfo id="134089_134089_411" depart="27000.00" departLane="23800191#2_0" departPos="5.10" departSpeed="0.00" departDelay="0.00" arrival="27029.00" arrivalLane="4400211#0_0" arrivalPos="197.56" arrivalSpeed="12.77" duration="29.00" routeLength="192.46" waitSteps="0" rerouteNo="3" devices="tripinfo_134089_134089_411 hbefa_134089_134089_411" vType="DEFAULT_VEHTYPE" vaporized="">
        <emissions CO_abs="767.219094" CO2_abs="69577.598688" HC_abs="20.403691" PMx_abs="7.212528" NOx_abs="140.450707" fuel_abs="27.739522"/>
    </tripinfo>
    <tripinfo id="84113_84113_390" depart="27000.00" departLane="150031205#0_0" departPos="5.10" departSpeed="0.00" departDelay="0.00" arrival="27029.00" arrivalLane="23471158#10_0" arrivalPos="144.68" arrivalSpeed="27.67" duration="29.00" routeLength="139.58" waitSteps="1" rerouteNo="7" devices="tripinfo_84113_84113_390 hbefa_84113_84113_390" vType="DEFAULT_VEHTYPE" vaporized="">
        <emissions CO_abs="3182.552447" CO2_abs="178414.062681" HC_abs="60.685904" PMx_abs="23.418569" NOx_abs="402.824668" fuel_abs="71.131048"/>
    </tripinfo>
    <tripinfo id="118681_118681_405" depart="27000.00" departLane="23471158#6_0" departPos="5.10" departSpeed="0.00" departDelay="0.00" arrival="27030.00" arrivalLane="32856811#2_0" arrivalPos="144.91" arrivalSpeed="12.72" duration="30.00" routeLength="139.81" waitSteps="0" rerouteNo="3" devices="tripinfo_118681_118681_405 hbefa_118681_118681_405" vType="DEFAULT_VEHTYPE" vaporized="">
        <emissions CO_abs="2098.057892" CO2_abs="127051.587519" HC_abs="42.297775" PMx_abs="16.578120" NOx_abs="282.613477" fuel_abs="50.653549"/>
    </tripinfo>
    <tripinfo id="187318_187318_433" depart="27013.00" departLane="-83823403#2_0" departPos="5.10" departSpeed="0.00" departDelay="0.00" arrival="27032.00" arrivalLane="-83823403#2_0" arrivalPos="184.87" arrivalSpeed="13.08" duration="19.00" routeLength="179.77" waitSteps="0" rerouteNo="1" devices="tripinfo_187318_187318_433 hbefa_187318_187318_433" vType="DEFAULT_VEHTYPE" vaporized="">
        <emissions CO_abs="698.306395" CO2_abs="54920.262580" HC_abs="17.125382" PMx_abs="6.267301" NOx_abs="114.105648" fuel_abs="21.895864"/>
    </tripinfo>
    <tripinfo id="122617_122617_406" depart="27000.00" departLane="131651824_0" departPos="5.10" departSpeed="0.00" departDelay="0.00" arrival="27032.00" arrivalLane="130875842_0" arrivalPos="81.21" arrivalSpeed="13.68" duration="32.00" routeLength="76.11" waitSteps="0" rerouteNo="3" devices="tripinfo_122617_122617_406 hbefa_122617_122617_406" vType="DEFAULT_VEHTYPE" vaporized="">
        <emissions CO_abs="1074.672332" CO2_abs="85212.209858" HC_abs="26.190978" PMx_abs="9.519069" NOx_abs="177.055761" fuel_abs="33.972800"/>
    </tripinfo>
    <tripinfo id="104726_104726_398" depart="27000.00" departLane="23471158#5_0" departPos="5.10" departSpeed="0.00" departDelay="0.00" arrival="27033.00" arrivalLane="32856811#2_0" arrivalPos="144.91" arrivalSpeed="12.82" duration="33.00" routeLength="139.81" waitSteps="0" rerouteNo="7" devices="tripinfo_104726_104726_398 hbefa_104726_104726_398" vType="DEFAULT_VEHTYPE" vaporized="">
        <emissions CO_abs="1972.676529" CO2_abs="124317.395139" HC_abs="40.896675" PMx_abs="15.262481" NOx_abs="272.019980" fuel_abs="49.563474"/>
    </tripinfo>
    <tripinfo id="212444_212444_443" depart="27003.00" departLane="166155712#0_0" departPos="5.10" departSpeed="0.00" departDelay="0.00" arrival="27033.00" arrivalLane="33469672_0" arrivalPos="142.78" arrivalSpeed="13.26" duration="30.00" routeLength="137.68" waitSteps="0" rerouteNo="2" devices="tripinfo_212444_212444_443 hbefa_212444_212444_443" vType="DEFAULT_VEHTYPE" vaporized="">
        <emissions CO_abs="949.594387" CO2_abs="73566.387033" HC_abs="22.838292" PMx_abs="8.405170" NOx_abs="153.750517" fuel_abs="29.329788"/>
    </tripinfo>
    <tripinfo id="103637_103637_397" depart="27000.00" departLane="145474196#1_0" departPos="5.10" departSpeed="0.00" departDelay="0.00" arrival="27034.00" arrivalLane="150039002#2_1" arrivalPos="249.40" arrivalSpeed="13.53" duration="34.00" routeLength="244.30" waitSteps="0" rerouteNo="3" devices="tripinfo_103637_103637_397 hbefa_103637_103637_397" vType="DEFAULT_VEHTYPE" vaporized="">
        <emissions CO_abs="952.974822" CO2_abs="81605.044117" HC_abs="24.379183" PMx_abs="8.726698" NOx_abs="166.727445" fuel_abs="32.534680"/>
    </tripinfo>
    <tripinfo id="208001_208001_441" depart="27001.00" departLane="-83823403#2_0" departPos="5.10" departSpeed="0.00" departDelay="0.00" arrival="27034.00" arrivalLane="23015529#0_0" arrivalPos="184.87" arrivalSpeed="13.23" duration="33.00" routeLength="179.77" waitSteps="0" rerouteNo="2" devices="tripinfo_208001_208001_441 hbefa_208001_208001_441" vType="DEFAULT_VEHTYPE" vaporized="">
        <emissions CO_abs="910.190510" CO2_abs="78465.553931" HC_abs="23.202107" PMx_abs="8.557833" NOx_abs="160.736229" fuel_abs="31.283015"/>
    </tripinfo>
    <tripinfo id="103310_103310_397" depart="27000.00" departLane="83703645_0" departPos="5.10" departSpeed="0.00" departDelay="0.00" arrival="27035.00" arrivalLane="23493177#0_0" arrivalPos="166.52" arrivalSpeed="7.60" duration="35.00" routeLength="161.42" waitSteps="0" rerouteNo="3" devices="tripinfo_103310_103310_397 hbefa_103310_103310_397" vType="DEFAULT_VEHTYPE" vaporized="">
        <emissions CO_abs="628.305387" CO2_abs="55441.708200" HC_abs="17.158144" PMx_abs="5.915030" NOx_abs="111.449629" fuel_abs="22.103751"/>
    </tripinfo>
    <tripinfo id="144652_144652_416" depart="27000.00" departLane="3065455_0" departPos="5.10" departSpeed="0.00" departDelay="0.00" arrival="27036.00" arrivalLane="130659365_0" arrivalPos="223.21" arrivalSpeed="7.44" duration="36.00" routeLength="218.11" waitSteps="0" rerouteNo="5" devices="tripinfo_144652_144652_416 hbefa_144652_144652_416" vType="DEFAULT_VEHTYPE" vaporized="">
        <emissions CO_abs="830.229963" CO2_abs="70969.322143" HC_abs="21.347598" PMx_abs="7.699014" NOx_abs="145.020846" fuel_abs="28.294380"/>
    </tripinfo>
    <tripinfo id="217202_217202_446" depart="27007.00" departLane="-83823403#2_0" departPos="5.10" departSpeed="0.00" departDelay="0.00" arrival="27036.00" arrivalLane="23015533_0" arrivalPos="110.79" arrivalSpeed="13.60" duration="29.00" routeLength="105.69" waitSteps="0" rerouteNo="2" devices="tripinfo_217202_217202_446 hbefa_217202_217202_446" vType="DEFAULT_VEHTYPE" vaporized="">
        <emissions CO_abs="929.405153" CO2_abs="71291.172459" HC_abs="22.356467" PMx_abs="8.228079" NOx_abs="149.157767" fuel_abs="28.422693"/>
    </tripinfo>
    <tripinfo id="154499_154499_420" depart="27000.00" departLane="28542995#0_0" departPos="5.10" departSpeed="0.00" departDelay="0.00" arrival="27037.00" arrivalLane="23493260#4_1" arrivalPos="126.60" arrivalSpeed="13.15" duration="37.00" routeLength="121.50" waitSteps="0" rerouteNo="9" devices="tripinfo_154499_154499_420 hbefa_154499_154499_420" vType="DEFAULT_VEHTYPE" vaporized="">
        <emissions CO_abs="870.547320" CO2_abs="83889.398815" HC_abs="23.620604" PMx_abs="8.671034" NOx_abs="168.496701" fuel_abs="33.445424"/>
    </tripinfo>
    <tripinfo id="113217_113217_402" depart="27009.00" departLane="23493176_0" departPos="5.10" departSpeed="0.00" departDelay="9.00" arrival="27038.00" arrivalLane="154755096_1" arrivalPos="66.91" arrivalSpeed="13.34" duration="29.00" routeLength="61.81" waitSteps="0" rerouteNo="4" devices="tripinfo_113217_113217_402 hbefa_113217_113217_402" vType="DEFAULT_VEHTYPE" vaporized="">
        <emissions CO_abs="580.738503" CO2_abs="57364.979620" HC_abs="17.124289" PMx_abs="5.674056" NOx_abs="112.617462" fuel_abs="22.870532"/>
    </tripinfo>
    <tripinfo id="238887_238887_451" depart="27010.00" departLane="-83823403#2_0" departPos="5.10" departSpeed="0.00" departDelay="0.00" arrival="27038.00" arrivalLane="23015533_0" arrivalPos="110.79" arrivalSpeed="13.14" duration="28.00" routeLength="105.69" waitSteps="0" rerouteNo="3" devices="tripinfo_238887_238887_451 hbefa_238887_238887_451" vType="DEFAULT_VEHTYPE" vaporized="">
        <emissions CO_abs="938.108259" CO2_abs="71626.095674" HC_abs="22.424182" PMx_abs="8.451554" NOx_abs="150.437088" fuel_abs="28.556222"/>
    </tripinfo>
    <tripinfo id="123467_123467_406" depart="27009.00" departLane="23471158#6_0" departPos="5.10" departSpeed="0.00" departDelay="9.00" arrival="27039.00" arrivalLane="32856811#2_0" arrivalPos="144.91" arrivalSpeed="12.85" duration="30.00" routeLength="139.81" waitSteps="0" rerouteNo="3" devices="tripinfo_123467_123467_406 hbefa_123467_123467_406" vType="DEFAULT_VEHTYPE" vaporized="">
        <emissions CO_abs="2110.858007" CO2_abs="133801.532595" HC_abs="43.461716" PMx_abs="16.910619" NOx_abs="294.015665" fuel_abs="53.344658"/>
    </tripinfo>
    <tripinfo id="218769_218769_446" depart="27003.00" departLane="-55940134_0" departPos="5.10" departSpeed="0.00" departDelay="3.00" arrival="27040.00" arrivalLane="-144935692#1_1" arrivalPos="103.61" arrivalSpeed="12.67" duration="37.00" routeLength="98.51" waitSteps="0" rerouteNo="4" devices="tripinfo_218769_218769_446 hbefa_218769_218769_446" vType="DEFAULT_VEHTYPE" vaporized="">
        <emissions CO_abs="571.310654" CO2_abs="69341.235441" HC_abs="18.056505" PMx_abs="6.381144" NOx_abs="133.944163" fuel_abs="27.645298"/>
    </tripinfo>
    <tripinfo id="171544_171544_426" depart="27000.00" departLane="187965762#1_0" departPos="5.10" departSpeed="0.00" departDelay="0.00" arrival="27040.00" arrivalLane="23800191#0_0" arrivalPos="143.94" arrivalSpeed="12.69" duration="40.00" routeLength="138.84" waitSteps="0" rerouteNo="4" devices="tripinfo_171544_171544_426 hbefa_171544_171544_426" vType="DEFAULT_VEHTYPE" vaporized="">
        <emissions CO_abs="637.841153" CO2_abs="64230.158909" HC_abs="18.610395" PMx_abs="6.309848" NOx_abs="126.340467" fuel_abs="25.607577"/>
    </tripinfo>
    <tripinfo id="244420_244420_453" depart="27015.00" departLane="-165515969#3_0" departPos="5.10" departSpeed="0.00" departDelay="0.00" arrival="27041.00" arrivalLane="-165511531#0_0" arrivalPos="53.73" arrivalSpeed="13.15" duration="26.00" routeLength="48.63" waitSteps="0" rerouteNo="5" devices="tripinfo_244420_244420_453 hbefa_244420_244420_453" vType="DEFAULT_VEHTYPE" vaporized="">
        <emissions CO_abs="2385.456669" CO2_abs="140245.038108" HC_abs="47.648100" PMx_abs="18.902728" NOx_abs="314.707587" fuel_abs="55.913566"/>
    </tripinfo>
    <tripinfo id="138122_138122_412" depart="27009.00" departLane="131651824_0" departPos="5.10" departSpeed="0.00" departDelay="9.00" arrival="27042.00" arrivalLane="130875842_0" arrivalPos="81.21" arrivalSpeed="13.66" duration="33.00" routeLength="76.11" waitSteps="0" rerouteNo="5" devices="tripinfo_138122_138122_412 hbefa_138122_138122_412" vType="DEFAULT_VEHTYPE" vaporized="">
        <emissions CO_abs="858.719336" CO2_abs="82784.280268" HC_abs="23.830944" PMx_abs="8.264577" NOx_abs="165.005357" fuel_abs="33.004826"/>
    </tripinfo>
    <tripinfo id="224931_224931_449" depart="27026.00" departLane="-28523795_0" departPos="5.10" departSpeed="0.00" departDelay="0.00" arrival="27043.00" arrivalLane="-28523795_0" arrivalPos="192.02" arrivalSpeed="13.80" duration="17.00" routeLength="186.92" waitSteps="0" rerouteNo="1" devices="tripinfo_224931_224931_449 hbefa_224931_224931_449" vType="DEFAULT_VEHTYPE" vaporized="">
        <emissions CO_abs="569.488383" CO2_abs="44962.917914" HC_abs="13.958172" PMx_abs="4.982597" NOx_abs="93.212739" fuel_abs="17.926025"/>
    </tripinfo>
    <tripinfo id="211099_211099_442" depart="27013.00" departLane="166155712#0_0" departPos="5.10" departSpeed="0.00" departDelay="0.00" arrival="27043.00" arrivalLane="33469672_0" arrivalPos="142.78" arrivalSpeed="13.47" duration="30.00" routeLength="137.68" waitSteps="0" rerouteNo="2" devices="tripinfo_211099_211099_442 hbefa_211099_211099_442" vType="DEFAULT_VEHTYPE" vaporized="">
        <emissions CO_abs="915.565708" CO2_abs="79561.395668" HC_abs="23.593734" PMx_abs="8.660506" NOx_abs="162.565817" fuel_abs="31.719909"/>
    </tripinfo>
    <tripinfo id="101376_101376_396" depart="27003.00" departLane="23471158#0_0" departPos="5.10" departSpeed="0.00" departDelay="3.00" arrival="27044.00" arrivalLane="32856811#2_0" arrivalPos="144.91" arrivalSpeed="12.63" duration="41.00" routeLength="139.81" waitSteps="0" rerouteNo="7" devices="tripinfo_101376_101376_396 hbefa_101376_101376_396" vType="DEFAULT_VEHTYPE" vaporized="">
        <emissions CO_abs="3404.840682" CO2_abs="209024.787610" HC_abs="68.531445" PMx_abs="26.909140" NOx_abs="463.982697" fuel_abs="83.335034"/>
    </tripinfo>
    <tripinfo id="68737_68737_381" depart="27021.00" departLane="23493176_0" departPos="5.10" departSpeed="0.00" departDelay="21.00" arrival="27044.00" arrivalLane="23493176_1" arrivalPos="83.31" arrivalSpeed="8.09" duration="23.00" routeLength="78.21" waitSteps="6" rerouteNo="1" devices="tripinfo_68737_68737_381 hbefa_68737_68737_381" vType="DEFAULT_VEHTYPE" vaporized="">
        <emissions CO_abs="346.694453" CO2_abs="30341.018429" HC_abs="10.599427" PMx_abs="2.910386" NOx_abs="58.504651" fuel_abs="12.096492"/>
    </tripinfo>
    <tripinfo id="212327_212327_442" depart="27014.00" departLane="198147972_0" departPos="5.10" departSpeed="0.00" departDelay="0.00" arrival="27044.00" arrivalLane="4353628#1_0" arrivalPos="68.95" arrivalSpeed="13.68" duration="30.00" routeLength="63.85" waitSteps="0" rerouteNo="4" devices="tripinfo_212327_212327_442 hbefa_212327_212327_442" vType="DEFAULT_VEHTYPE" vaporized="">
        <emissions CO_abs="563.514228" CO2_abs="63635.612007" HC_abs="17.155527" PMx_abs="5.934541" NOx_abs="123.816436" fuel_abs="25.370551"/>
    </tripinfo>
    <tripinfo id="101768_101768_396" depart="27000.00" departLane="23493181#0_0" departPos="5.10" departSpeed="0.00" departDelay="0.00" arrival="27045.00" arrivalLane="122989592#2_1" arrivalPos="74.34" arrivalSpeed="8.12" duration="45.00" routeLength="69.24" waitSteps="0" rerouteNo="3" devices="tripinfo_101768_101768_396 hbefa_101768_101768_396" vType="DEFAULT_VEHTYPE" vaporized="">
        <emissions CO_abs="700.724520" CO2_abs="70716.847347" HC_abs="21.158599" PMx_abs="6.845388" NOx_abs="137.626583" fuel_abs="28.193714"/>
    </tripinfo>
    <tripinfo id="142703_142703_415" depart="27034.00" departLane="129861628#0_0" departPos="5.10" departSpeed="0.00" departDelay="34.00" arrival="27045.00" arrivalLane="129861628#0_0" arrivalPos="107.21" arrivalSpeed="13.26" duration="11.00" routeLength="102.11" waitSteps="0" rerouteNo="1" devices="tripinfo_142703_142703_415 hbefa_142703_142703_415" vType="DEFAULT_VEHTYPE" vaporized="">
        <emissions CO_abs="446.354790" CO2_abs="34590.632513" HC_abs="11.018910" PMx_abs="3.826699" NOx_abs="71.590859" fuel_abs="13.790752"/>
    </tripinfo>
    <tripinfo id="245947_245947_454" depart="27016.00" departLane="-83823403#2_0" departPos="5.10" departSpeed="0.00" departDelay="0.00" arrival="27045.00" arrivalLane="23015533_0" arrivalPos="110.79" arrivalSpeed="13.42" duration="29.00" routeLength="105.69" waitSteps="0" rerouteNo="3" devices="tripinfo_245947_245947_454 hbefa_245947_245947_454" vType="DEFAULT_VEHTYPE" vaporized="">
        <emissions CO_abs="988.243869" CO2_abs="73134.946021" HC_abs="23.185444" PMx_abs="8.764272" NOx_abs="154.528513" fuel_abs="29.157777"/>
    </tripinfo>
    <tripinfo id="197472_197472_436" depart="27006.00" departLane="23800191#2_0" departPos="5.10" departSpeed="0.00" departDelay="6.00" arrival="27045.00" arrivalLane="130875842_0" arrivalPos="81.21" arrivalSpeed="13.32" duration="39.00" routeLength="76.11" waitSteps="0" rerouteNo="7" devices="tripinfo_197472_197472_436 hbefa_197472_197472_436" vType="DEFAULT_VEHTYPE" vaporized="">
        <emissions CO_abs="999.538827" CO2_abs="89277.340036" HC_abs="26.580366" PMx_abs="9.261077" NOx_abs="180.278459" fuel_abs="35.593506"/>
    </tripinfo>
    <tripinfo id="244003_244003_453" depart="27029.00" departLane="-28523795_0" departPos="5.10" departSpeed="0.00" departDelay="0.00" arrival="27046.00" arrivalLane="-28523795_0" arrivalPos="192.02" arrivalSpeed="13.68" duration="17.00" routeLength="186.92" waitSteps="0" rerouteNo="1" devices="tripinfo_244003_244003_453 hbefa_244003_244003_453" vType="DEFAULT_VEHTYPE" vaporized="">
        <emissions CO_abs="506.588483" CO2_abs="44681.874740" HC_abs="13.268038" PMx_abs="4.668662" NOx_abs="90.606364" fuel_abs="17.813979"/>
    </tripinfo>
    <tripinfo id="140107_140107_414" depart="27000.00" departLane="154755117_0" departPos="5.10" departSpeed="0.00" departDelay="0.00" arrival="27046.00" arrivalLane="23800191#0_0" arrivalPos="143.94" arrivalSpeed="13.17" duration="46.00" routeLength="138.84" waitSteps="18" rerouteNo="2" devices="tripinfo_140107_140107_414 hbefa_140107_140107_414" vType="DEFAULT_VEHTYPE" vaporized="">
        <emissions CO_abs="701.877347" CO2_abs="62878.277394" HC_abs="21.499776" PMx_abs="6.023395" NOx_abs="121.311233" fuel_abs="25.068600"/>
    </tripinfo>
    <tripinfo id="227630_227630_450" depart="27017.00" departLane="166155712#0_0" departPos="5.10" departSpeed="0.00" departDelay="0.00" arrival="27047.00" arrivalLane="33469672_0" arrivalPos="142.78" arrivalSpeed="13.84" duration="30.00" routeLength="137.68" waitSteps="0" rerouteNo="3" devices="tripinfo_227630_227630_450 hbefa_227630_227630_450" vType="DEFAULT_VEHTYPE" vaporized="">