<?xml version="1.0" encoding="UTF-8"?>

<!-- generated on Thu Apr 17 19:51:00 2014 by SUMO sumo Version 0.19.0
<?xml version="1.0" encoding="UTF-8"?>

<configuration xmlns:xsi="http://www.w3.org/2001/XMLSchema-instance" xsi:noNamespaceSchemaLocation="http://sumo-sim.org/xsd/sumoConfiguration.xsd">

    <input>
        <net-file value="data/map.net.xml"/>
        <route-files value="data/map.rou.xml"/>
    </input>

    <output>
        <tripinfo-output value="data/maptripinfo.out.xml"/>
        <save-state.prefix value="data/state"/>
    </output>

    <time>
        <begin value="27000"/>
        <end value="27900"/>
    </time>

    <processing>
        <route-steps value="200"/>
        <scale value="0.8"/>
        <time-to-teleport value="300"/>
        <lanechange.allow-swap value="true"/>
    </processing>

    <report>
        <verbose value="true"/>
        <no-warnings value="true"/>
        <no-step-log value="true"/>
    </report>

    <emissions>
        <device.hbefa.probability value="1"/>
    </emissions>

    <traci_server>
        <remote-port value="8814"/>
    </traci_server>

</configuration>
-->

<tripinfos>
    <tripinfo id="136022_136022_411" depart="27003.00" departLane="23800191#2_0" departPos="5.10" departSpeed="0.00" departDelay="3.00" arrival="27009.00" arrivalLane="23800191#2_0" arrivalPos="38.41" arrivalSpeed="9.04" duration="6.00" routeLength="33.31" waitSteps="0" rerouteNo="0" devices="tripinfo_136022_136022_411 hbefa_136022_136022_411" vType="DEFAULT_VEHTYPE" vaporized="">
        <emissions CO_abs="185.360283" CO2_abs="15770.136816" HC_abs="5.217217" PMx_abs="1.592998" NOx_abs="31.263366" fuel_abs="6.287308"/>
    </tripinfo>
    <tripinfo id="182087_182087_431" depart="27000.00" departLane="4380937#2_0" departPos="5.10" departSpeed="0.00" departDelay="0.00" arrival="27011.00" arrivalLane="4380937#3_0" arrivalPos="72.76" arrivalSpeed="13.26" duration="11.00" routeLength="67.66" waitSteps="0" rerouteNo="1" devices="tripinfo_182087_182087_431 hbefa_182087_182087_431" vType="DEFAULT_VEHTYPE" vaporized="">
        <emissions CO_abs="469.278227" CO2_abs="35651.664580" HC_abs="11.255847" PMx_abs="4.242656" NOx_abs="74.803559" fuel_abs="14.213770"/>
    </tripinfo>
    <tripinfo id="72912_72912_384" depart="27003.00" departLane="9207803_0" departPos="5.10" departSpeed="0.00" departDelay="3.00" arrival="27014.00" arrivalLane="9207803_0" arrivalPos="69.23" arrivalSpeed="7.31" duration="11.00" routeLength="64.13" waitSteps="0" rerouteNo="0" devices="tripinfo_72912_72912_384 hbefa_72912_72912_384" vType="DEFAULT_VEHTYPE" vaporized="">
        <emissions CO_abs="171.194640" CO2_abs="19645.344105" HC_abs="5.977894" PMx_abs="1.746273" NOx_abs="36.848752" fuel_abs="7.832294"/>
    </tripinfo>
    <tripinfo id="105435_105435_398" depart="27003.00" departLane="145474196#1_0" departPos="5.10" departSpeed="0.00" departDelay="3.00" arrival="27015.00" arrivalLane="145474196#1_0" arrivalPos="94.12" arrivalSpeed="11.77" duration="12.00" routeLength="89.02" waitSteps="0" rerouteNo="0" devices="tripinfo_105435_105435_398 hbefa_105435_105435_398" vType="DEFAULT_VEHTYPE" vaporized="">
        <emissions CO_abs="746.604061" CO2_abs="48577.666762" HC_abs="16.450825" PMx_abs="6.316873" NOx_abs="105.720505" fuel_abs="19.367163"/>
    </tripinfo>
    <tripinfo id="92380_92380_392" depart="27000.00" departLane="-154755073#3_0" departPos="5.10" departSpeed="0.00" departDelay="0.00" arrival="27015.00" arrivalLane="-154755073#3_0" arrivalPos="102.52" arrivalSpeed="7.58" duration="15.00" routeLength="97.42" waitSteps="0" rerouteNo="0" devices="tripinfo_92380_92380_392 hbefa_92380_92380_392" vType="DEFAULT_VEHTYPE" vaporized="">
        <emissions CO_abs="235.384896" CO2_abs="22283.269325" HC_abs="6.983496" PMx_abs="2.320827" NOx_abs="43.720204" fuel_abs="8.883994"/>
    </tripinfo>
    <tripinfo id="251564_251564_457" depart="27002.00" departLane="51113317_0" departPos="5.10" departSpeed="0.00" departDelay="0.00" arrival="27015.00" arrivalLane="51113317_0" arrivalPos="125.08" arrivalSpeed="13.42" duration="13.00" routeLength="119.98" waitSteps="0" rerouteNo="0" devices="tripinfo_251564_251564_457 hbefa_251564_251564_457" vType="DEFAULT_VEHTYPE" vaporized="">
        <emissions CO_abs="449.225877" CO2_abs="39147.027350" HC_abs="11.753360" PMx_abs="4.216313" NOx_abs="79.626631" fuel_abs="15.607319"/>
    </tripinfo>
    <tripinfo id="84049_84049_390" depart="27006.00" departLane="9207803_0" departPos="5.10" departSpeed="0.00" departDelay="6.00" arrival="27016.00" arrivalLane="9207803_0" arrivalPos="69.23" arrivalSpeed="8.08" duration="10.00" routeLength="64.13" waitSteps="0" rerouteNo="0" devices="tripinfo_84049_84049_390 hbefa_84049_84049_390" vType="DEFAULT_VEHTYPE" vaporized="">
        <emissions CO_abs="171.207188" CO2_abs="17082.512117" HC_abs="5.351308" PMx_abs="1.590104" NOx_abs="32.869306" fuel_abs="6.810532"/>
    </tripinfo>
    <tripinfo id="105964_105964_399" depart="27007.00" departLane="145474196#1_0" departPos="5.10" departSpeed="0.00" departDelay="7.00" arrival="27017.00" arrivalLane="145474196#1_0" arrivalPos="94.12" arrivalSpeed="12.91" duration="10.00" routeLength="89.02" waitSteps="0" rerouteNo="0" devices="tripinfo_105964_105964_399 hbefa_105964_105964_399" vType="DEFAULT_VEHTYPE" vaporized="">
        <emissions CO_abs="566.357422" CO2_abs="38613.092492" HC_abs="12.708660" PMx_abs="4.845001" NOx_abs="83.174024" fuel_abs="15.394444"/>
    </tripinfo>
    <tripinfo id="232041_232041_451" depart="27002.00" departLane="28523795_0" departPos="5.10" departSpeed="0.00" departDelay="0.00" arrival="27019.00" arrivalLane="28523795_0" arrivalPos="192.02" arrivalSpeed="13.43" duration="17.00" routeLength="186.92" waitSteps="0" rerouteNo="0" devices="tripinfo_232041_232041_451 hbefa_232041_232041_451" vType="DEFAULT_VEHTYPE" vaporized="">
        <emissions CO_abs="530.375468" CO2_abs="48107.862184" HC_abs="14.035935" PMx_abs="5.017415" NOx_abs="97.274754" fuel_abs="19.179869"/>
    </tripinfo>
    <tripinfo id="135880_135880_411" depart="27000.00" departLane="150039002#2_0" departPos="5.10" departSpeed="0.00" departDelay="0.00" arrival="27022.00" arrivalLane="150039002#2_0" arrivalPos="249.40" arrivalSpeed="13.73" duration="22.00" routeLength="244.30" waitSteps="0" rerouteNo="0" devices="tripinfo_135880_135880_411 hbefa_135880_135880_411" vType="DEFAULT_VEHTYPE" vaporized="">
        <emissions CO_abs="591.476650" CO2_abs="58913.353348" HC_abs="16.587770" PMx_abs="5.873039" NOx_abs="117.201648" fuel_abs="23.487855"/>
    </tripinfo>
    <tripinfo id="219187_219187_446" depart="27000.00" departLane="144935690_0" departPos="5.10" departSpeed="0.00" departDelay="0.00" arrival="27022.00" arrivalLane="25997632_0" arrivalPos="136.14" arrivalSpeed="12.80" duration="22.00" routeLength="131.04" waitSteps="0" rerouteNo="2" devices="tripinfo_219187_219187_446 hbefa_219187_219187_446" vType="DEFAULT_VEHTYPE" vaporized="">
        <emissions CO_abs="501.338777" CO2_abs="49622.694607" HC_abs="13.961301" PMx_abs="5.236768" NOx_abs="99.260985" fuel_abs="19.783812"/>
    </tripinfo>
    <tripinfo id="206737_206737_440" depart="27007.00" departLane="-29206900_0" departPos="5.10" departSpeed="0.00" departDelay="0.00" arrival="27022.00" arrivalLane="29207110_0" arrivalPos="28.94" arrivalSpeed="12.28" duration="15.00" routeLength="23.84" waitSteps="0" rerouteNo="1" devices="tripinfo_206737_206737_440 hbefa_206737_206737_440" vType="DEFAULT_VEHTYPE" vaporized="">
        <emissions CO_abs="489.506466" CO2_abs="37853.019687" HC_abs="12.309172" PMx_abs="4.308165" NOx_abs="78.200875" fuel_abs="15.091412"/>
    </tripinfo>
    <tripinfo id="110327_110327_401" depart="27000.00" departLane="53212166#0_0" departPos="5.10" departSpeed="0.00" departDelay="0.00" arrival="27023.00" arrivalLane="28542995#2_2" arrivalPos="61.74" arrivalSpeed="13.47" duration="23.00" routeLength="56.64" waitSteps="0" rerouteNo="3" devices="tripinfo_110327_110327_401 hbefa_110327_110327_401" vType="DEFAULT_VEHTYPE" vaporized="">
        <emissions CO_abs="466.822594" CO2_abs="49553.643035" HC_abs="13.876687" PMx_abs="4.840859" NOx_abs="97.166229" fuel_abs="19.756280"/>
    </tripinfo>
    <tripinfo id="225242_225242_449" depart="27000.00" departLane="154755124_0" departPos="5.10" departSpeed="0.00" departDelay="0.00" arrival="27024.00" arrivalLane="4380937#3_1" arrivalPos="72.76" arrivalSpeed="12.79" duration="24.00" routeLength="67.66" waitSteps="0" rerouteNo="2" devices="tripinfo_225242_225242_449 hbefa_225242_225242_449" vType="DEFAULT_VEHTYPE" vaporized="">
        <emissions CO_abs="655.509857" CO2_abs="52219.861690" HC_abs="16.558308" PMx_abs="5.951693" NOx_abs="107.672623" fuel_abs="20.819252"/>
    </tripinfo>
    <tripinfo id="75851_75851_386" depart="27002.00" departLane="28542995#2_0" departPos="5.10" departSpeed="0.00" departDelay="2.00" arrival="27024.00" arrivalLane="23493181#0_0" arrivalPos="88.20" arrivalSpeed="5.38" duration="22.00" routeLength="83.10" waitSteps="0" rerouteNo="1" devices="tripinfo_75851_75851_386 hbefa_75851_75851_386" vType="DEFAULT_VEHTYPE" vaporized="">
        <emissions CO_abs="591.939692" CO2_abs="44037.142246" HC_abs="14.613056" PMx_abs="5.154634" NOx_abs="91.616601" fuel_abs="17.556926"/>
    </tripinfo>
    <tripinfo id="148867_148867_417" depart="27006.00" departLane="3065455_0" departPos="5.10" departSpeed="0.00" departDelay="6.00" arrival="27024.00" arrivalLane="23800191#0_0" arrivalPos="143.94" arrivalSpeed="13.66" duration="18.00" routeLength="138.84" waitSteps="0" rerouteNo="1" devices="tripinfo_148867_148867_417 hbefa_148867_148867_417" vType="DEFAULT_VEHTYPE" vaporized="">
        <emissions CO_abs="532.939998" CO2_abs="47544.439963" HC_abs="13.920793" PMx_abs="5.160513" NOx_abs="96.761725" fuel_abs="18.955241"/>
    </tripinfo>
    <tripinfo id="141415_141415_415" depart="27003.00" departLane="150039002#2_0" departPos="5.10" departSpeed="0.00" departDelay="3.00" arrival="27025.00" arrivalLane="150039002#2_0" arrivalPos="249.40" arrivalSpeed="12.62" duration="22.00" routeLength="244.30" waitSteps="0" rerouteNo="0" devices="tripinfo_141415_141415_415 hbefa_141415_141415_415" vType="DEFAULT_VEHTYPE" vaporized="">
        <emissions CO_abs="525.125332" CO2_abs="51638.317128" HC_abs="14.613739" PMx_abs="5.248752" NOx_abs="103.064953" fuel_abs="20.587409"/>
    </tripinfo>
    <tripinfo id="225541_225541_450" depart="27000.00" departLane="9207803_0" departPos="5.10" departSpeed="0.00" departDelay="0.00" arrival="27025.00" arrivalLane="154755073#3_0" arrivalPos="102.52" arrivalSpeed="7.30" duration="25.00" routeLength="97.42" waitSteps="0" rerouteNo="1" devices="tripinfo_225541_225541_450 hbefa_225541_225541_450" vType="DEFAULT_VEHTYPE" vaporized="">
        <emissions CO_abs="341.855497" CO2_abs="35142.643487" HC_abs="10.707697" PMx_abs="3.366301" NOx_abs="67.826051" fuel_abs="14.010827"/>
    </tripinfo>
    <tripinfo id="136596_136596_411" depart="27003.00" departLane="131651824_0" departPos="5.10" departSpeed="0.00" departDelay="3.00" arrival="27027.00" arrivalLane="4400211#0_0" arrivalPos="197.56" arrivalSpeed="12.87" duration="24.00" routeLength="192.46" waitSteps="0" rerouteNo="1" devices="tripinfo_136596_136596_411 hbefa_136596_136596_411" vType="DEFAULT_VEHTYPE" vaporized="">
        <emissions CO_abs="674.967574" CO2_abs="55002.758005" HC_abs="16.865744" PMx_abs="6.072679" NOx_abs="113.432026" fuel_abs="21.928755"/>
    </tripinfo>
    <tripinfo id="220353_220353_447" depart="27001.00" departLane="-165515969#3_0" departPos="5.10" departSpeed="0.00" departDelay="0.00" arrival="27027.00" arrivalLane="-165511531#0_0" arrivalPos="53.73" arrivalSpeed="13.21" duration="26.00" routeLength="48.63" waitSteps="0" rerouteNo="2" devices="tripinfo_220353_220353_447 hbefa_220353_220353_447" vType="DEFAULT_VEHTYPE" vaporized="">
        <emissions CO_abs="2126.843029" CO2_abs="129207.845028" HC_abs="43.323235" PMx_abs="16.840611" NOx_abs="286.834425" fuel_abs="51.513206"/>
    </tripinfo>
    <tripinfo id="134089_134089_411" depart="27000.00" departLane="23800191#2_0" departPos="5.10" departSpeed="0.00" departDelay="0.00" arrival="27028.00" arrivalLane="4400211#0_0" arrivalPos="197.56" arrivalSpeed="13.57" duration="28.00" routeLength="192.46" waitSteps="0" rerouteNo="2" devices="tripinfo_134089_134089_411 hbefa_134089_134089_411" vType="DEFAULT_VEHTYPE" vaporized="">
        <emissions CO_abs="961.596434" CO2_abs="71319.659508" HC_abs="22.574032" PMx_abs="8.435843" NOx_abs="150.591649" fuel_abs="28.434050"/>
    </tripinfo>
    <tripinfo id="162999_162999_422" depart="27000.00" departLane="150031230#2_0" departPos="5.10" departSpeed="0.00" departDelay="0.00" arrival="27029.00" arrivalLane="129833341#0_1" arrivalPos="129.85" arrivalSpeed="12.91" duration="29.00" routeLength="124.75" waitSteps="0" rerouteNo="1" devices="tripinfo_162999_162999_422 hbefa_162999_162999_422" vType="DEFAULT_VEHTYPE" vaporized="">
        <emissions CO_abs="867.423804" CO2_abs="73409.279672" HC_abs="22.103508" PMx_abs="7.960269" NOx_abs="150.383122" fuel_abs="29.267153"/>
    </tripinfo>
    <tripinfo id="84113_84113_390" depart="27000.00" departLane="150031205#0_0" departPos="5.10" departSpeed="0.00" departDelay="0.00" arrival="27029.00" arrivalLane="23471158#10_0" arrivalPos="144.68" arrivalSpeed="27.15" duration="29.00" routeLength="139.58" waitSteps="1" rerouteNo="3" devices="tripinfo_84113_84113_390 hbefa_84113_84113_390" vType="DEFAULT_VEHTYPE" vaporized="">
        <emissions CO_abs="2424.960790" CO2_abs="143468.911694" HC_abs="47.966714" PMx_abs="17.731594" NOx_abs="318.031378" fuel_abs="57.198925"/>
    </tripinfo>
    <tripinfo id="118681_118681_405" depart="27000.00" departLane="23471158#6_0" departPos="5.10" departSpeed="0.00" departDelay="0.00" arrival="27030.00" arrivalLane="32856811#2_0" arrivalPos="144.91" arrivalSpeed="13.25" duration="30.00" routeLength="139.81" waitSteps="0" rerouteNo="2" devices="tripinfo_118681_118681_405 hbefa_118681_118681_405" vType="DEFAULT_VEHTYPE" vaporized="">
        <emissions CO_abs="2148.772634" CO2_abs="134391.740554" HC_abs="43.803802" PMx_abs="16.707042" NOx_abs="295.572423" fuel_abs="53.579973"/>
    </tripinfo>
    <tripinfo id="188835_188835_434" depart="27006.00" departLane="187965762#1_0" departPos="5.10" departSpeed="0.00" departDelay="6.00" arrival="27031.00" arrivalLane="187965762#2_0" arrivalPos="85.18" arrivalSpeed="8.02" duration="25.00" routeLength="80.08" waitSteps="0" rerouteNo="1" devices="tripinfo_188835_188835_434 hbefa_188835_188835_434" vType="DEFAULT_VEHTYPE" vaporized="">
        <emissions CO_abs="176.993551" CO2_abs="32130.314811" HC_abs="8.748899" PMx_abs="2.358267" NOx_abs="56.472162" fuel_abs="12.809860"/>
    </tripinfo>
    <tripinfo id="122617_122617_406" depart="27000.00" departLane="131651824_0" departPos="5.10" departSpeed="0.00" departDelay="0.00" arrival="27031.00" arrivalLane="130875842_0" arrivalPos="81.21" arrivalSpeed="13.58" duration="31.00" routeLength="76.11" waitSteps="0" rerouteNo="2" devices="tripinfo_122617_122617_406 hbefa_122617_122617_406" vType="DEFAULT_VEHTYPE" vaporized="">
        <emissions CO_abs="969.081234" CO2_abs="79764.862331" HC_abs="24.104970" PMx_abs="8.963001" NOx_abs="164.861654" fuel_abs="31.801027"/>
    </tripinfo>
    <tripinfo id="104726_104726_398" depart="27000.00" departLane="23471158#5_0" departPos="5.10" departSpeed="0.00" departDelay="0.00" arrival="27032.00" arrivalLane="32856811#2_0" arrivalPos="144.91" arrivalSpeed="12.85" duration="32.00" routeLength="139.81" waitSteps="0" rerouteNo="3" devices="tripinfo_104726_104726_398 hbefa_104726_104726_398" vType="DEFAULT_VEHTYPE" vaporized="">
        <emissions CO_abs="1907.691014" CO2_abs="120828.923507" HC_abs="39.506237" PMx_abs="14.663010" NOx_abs="264.033237" fuel_abs="48.172677"/>
    </tripinfo>
    <tripinfo id="187318_187318_433" depart="27013.00" departLane="-83823403#2_0" departPos="5.10" departSpeed="0.00" departDelay="0.00" arrival="27032.00" arrivalLane="-83823403#2_0" arrivalPos="184.87" arrivalSpeed="9.78" duration="19.00" routeLength="179.77" waitSteps="0" rerouteNo="0" devices="tripinfo_187318_187318_433 hbefa_187318_187318_433" vType="DEFAULT_VEHTYPE" vaporized="">
        <emissions CO_abs="611.049900" CO2_abs="47729.824208" HC_abs="15.025273" PMx_abs="5.356630" NOx_abs="99.030202" fuel_abs="19.029145"/>
    </tripinfo>
    <tripinfo id="212444_212444_443" depart="27003.00" departLane="166155712#0_0" departPos="5.10" departSpeed="0.00" departDelay="0.00" arrival="27033.00" arrivalLane="33469672_0" arrivalPos="142.78" arrivalSpeed="13.67" duration="30.00" routeLength="137.68" waitSteps="0" rerouteNo="1" devices="tripinfo_212444_212444_443 hbefa_212444_212444_443" vType="DEFAULT_VEHTYPE" vaporized="">
        <emissions CO_abs="1095.104989" CO2_abs="83144.854038" HC_abs="25.822554" PMx_abs="9.963079" NOx_abs="175.399120" fuel_abs="33.148576"/>
    </tripinfo>
    <tripinfo id="103637_103637_397" depart="27000.00" departLane="145474196#1_0" departPos="5.10" departSpeed="0.00" departDelay="0.00" arrival="27034.00" arrivalLane="150039002#2_1" arrivalPos="249.40" arrivalSpeed="13.65" duration="34.00" routeLength="244.30" waitSteps="0" rerouteNo="2" devices="tripinfo_103637_103637_397 hbefa_103637_103637_397" vType="DEFAULT_VEHTYPE" vaporized="">
        <emissions CO_abs="962.622927" CO2_abs="86761.988848" HC_abs="25.366194" PMx_abs="9.010900" NOx_abs="175.593246" fuel_abs="34.590677"/>
    </tripinfo>
    <tripinfo id="208001_208001_441" depart="27001.00" departLane="-83823403#2_0" departPos="5.10" departSpeed="0.00" departDelay="0.00" arrival="27034.00" arrivalLane="23015529#0_0" arrivalPos="184.87" arrivalSpeed="13.09" duration="33.00" routeLength="179.77" waitSteps="0" rerouteNo="1" devices="tripinfo_208001_208001_441 hbefa_208001_208001_441" vType="DEFAULT_VEHTYPE" vaporized="">
        <emissions CO_abs="978.122027" CO2_abs="79018.430372" HC_abs="24.005481" PMx_abs="8.927388" NOx_abs="164.018844" fuel_abs="31.503436"/>
    </tripinfo>
    <tripinfo id="217202_217202_446" depart="27007.00" departLane="-83823403#2_0" departPos="5.10" departSpeed="0.00" departDelay="0.00" arrival="27034.00" arrivalLane="23015533_0" arrivalPos="110.79" arrivalSpeed="13.40" duration="27.00" routeLength="105.69" waitSteps="0" rerouteNo="1" devices="tripinfo_217202_217202_446 hbefa_217202_217202_446" vType="DEFAULT_VEHTYPE" vaporized="">
        <emissions CO_abs="843.953609" CO2_abs="68187.389067" HC_abs="20.718606" PMx_abs="7.861495" NOx_abs="141.660556" fuel_abs="27.185265"/>
    </tripinfo>
    <tripinfo id="103310_103310_397" depart="27000.00" departLane="83703645_0" departPos="5.10" departSpeed="0.00" departDelay="0.00" arrival="27035.00" arrivalLane="23493177#0_0" arrivalPos="166.52" arrivalSpeed="8.26" duration="35.00" routeLength="161.42" waitSteps="0" rerouteNo="2" devices="tripinfo_103310_103310_397 hbefa_103310_103310_397" vType="DEFAULT_VEHTYPE" vaporized="">
        <emissions CO_abs="558.775264" CO2_abs="54539.798142" HC_abs="16.405435" PMx_abs="5.346559" NOx_abs="107.038539" fuel_abs="21.744175"/>
    </tripinfo>
    <tripinfo id="144652_144652_416" depart="27000.00" departLane="3065455_0" departPos="5.10" departSpeed="0.00" departDelay="0.00" arrival="27039.00" arrivalLane="130659365_0" arrivalPos="223.21" arrivalSpeed="5.80" duration="39.00" routeLength="218.11" waitSteps="0" rerouteNo="2" devices="tripinfo_144652_144652_416 hbefa_144652_144652_416" vType="DEFAULT_VEHTYPE" vaporized="">
        <emissions CO_abs="872.552211" CO2_abs="70039.824699" HC_abs="21.645306" PMx_abs="7.879395" NOx_abs="144.960303" fuel_abs="27.923802"/>
    </tripinfo>
    <tripinfo id="238887_238887_451" depart="27010.00" departLane="-83823403#2_0" departPos="5.10" departSpeed="0.00" departDelay="0.00" arrival="27039.00" arrivalLane="23015533_0" arrivalPos="110.79" arrivalSpeed="13.09" duration="29.00" routeLength="105.69" waitSteps="0" rerouteNo="1" devices="tripinfo_238887_238887_451 hbefa_238887_238887_451" vType="DEFAULT_VEHTYPE" vaporized="">
        <emissions CO_abs="903.018258" CO2_abs="74079.859046" HC_abs="22.587304" PMx_abs="8.295895" NOx_abs="152.929997" fuel_abs="29.534502"/>
    </tripinfo>
    <tripinfo id="218769_218769_446" depart="27003.00" departLane="-55940134_0" departPos="5.10" departSpeed="0.00" departDelay="3.00" arrival="27040.00" arrivalLane="-144935692#1_1" arrivalPos="103.61" arrivalSpeed="13.72" duration="37.00" routeLength="98.51" waitSteps="0" rerouteNo="3" devices="tripinfo_218769_218769_446 hbefa_218769_218769_446" vType="DEFAULT_VEHTYPE" vaporized="">
        <emissions CO_abs="689.476063" CO2_abs="77508.947239" HC_abs="20.672896" PMx_abs="7.282623" NOx_abs="151.527751" fuel_abs="30.901640"/>
    </tripinfo>
    <tripinfo id="154499_154499_420" depart="27000.00" departLane="28542995#0_0" departPos="5.10" departSpeed="0.00" departDelay="0.00" arrival="27040.00" arrivalLane="23493260#4_1" arrivalPos="126.60" arrivalSpeed="13.67" duration="40.00" routeLength="121.50" waitSteps="0" rerouteNo="4" devices="tripinfo_154499_154499_420 hbefa_154499_154499_420" vType="DEFAULT_VEHTYPE" vaporized="">
        <emissions CO_abs="1064.823400" CO2_abs="92969.481939" HC_abs="27.654102" PMx_abs="9.959815" NOx_abs="189.329906" fuel_abs="37.065508"/>
    </tripinfo>
    <tripinfo id="108705_108705_400" depart="27000.00" departLane="36454807#3_0" departPos="5.10" departSpeed="0.00" departDelay="0.00" arrival="27040.00" arrivalLane="32856811#2_0" arrivalPos="144.91" arrivalSpeed="13.48" duration="40.00" routeLength="139.81" waitSteps="0" rerouteNo="4" devices="tripinfo_108705_108705_400 hbefa_108705_108705_400" vType="DEFAULT_VEHTYPE" vaporized="">
        <emissions CO_abs="2577.537876" CO2_abs="170349.934311" HC_abs="54.279804" PMx_abs="20.492986" NOx_abs="369.259080" fuel_abs="67.915967"/>
    </tripinfo>
    <tripinfo id="171544_171544_426" depart="27000.00" departLane="187965762#1_0" departPos="5.10" departSpeed="0.00" departDelay="0.00" arrival="27040.00" arrivalLane="23800191#0_0" arrivalPos="143.94" arrivalSpeed="12.71" duration="40.00" routeLength="138.84" waitSteps="0" rerouteNo="3" devices="tripinfo_171544_171544_426 hbefa_171544_171544_426" vType="DEFAULT_VEHTYPE" vaporized="">
        <emissions CO_abs="577.814447" CO2_abs="61603.097664" HC_abs="17.699001" PMx_abs="5.652449" NOx_abs="119.303407" fuel_abs="24.560208"/>
    </tripinfo>
    <tripinfo id="138122_138122_412" depart="27009.00" departLane="131651824_0" departPos="5.10" departSpeed="0.00" departDelay="9.00" arrival="27041.00" arrivalLane="130875842_0" arrivalPos="81.21" arrivalSpeed="13.68" duration="32.00" routeLength="76.11" waitSteps="0" rerouteNo="2" devices="tripinfo_138122_138122_412 hbefa_138122_138122_412" vType="DEFAULT_VEHTYPE" vaporized="">
        <emissions CO_abs="932.539372" CO2_abs="79874.107314" HC_abs="23.837647" PMx_abs="8.691315" NOx_abs="163.416313" fuel_abs="31.844583"/>
    </tripinfo>
    <tripinfo id="184987_184987_431" depart="27000.00" departLane="-186463490#0_0" departPos="5.10" departSpeed="0.00" departDelay="0.00" arrival="27042.00" arrivalLane="-144935692#1_1" arrivalPos="103.61" arrivalSpeed="13.68" duration="42.00" routeLength="98.51" waitSteps="0" rerouteNo="4" devices="tripinfo_184987_184987_431 hbefa_184987_184987_431" vType="DEFAULT_VEHTYPE" vaporized="">
        <emissions CO_abs="582.973541" CO2_abs="78120.738012" HC_abs="19.884939" PMx_abs="6.585849" NOx_abs="147.971996" fuel_abs="31.145554"/>
    </tripinfo>
    <tripinfo id="244420_244420_453" depart="27015.00" departLane="-165515969#3_0" departPos="5.10" departSpeed="0.00" departDelay="0.00" arrival="27042.00" arrivalLane="-165511531#0_0" arrivalPos="53.73" arrivalSpeed="12.76" duration="27.00" routeLength="48.63" waitSteps="0" rerouteNo="2" devices="tripinfo_244420_244420_453 hbefa_244420_244420_453" vType="DEFAULT_VEHTYPE" vaporized="">
        <emissions CO_abs="2385.113571" CO2_abs="136958.767354" HC_abs="47.118776" PMx_abs="18.895849" NOx_abs="309.511790" fuel_abs="54.603378"/>
    </tripinfo>
    <tripinfo id="224931_224931_449" depart="27026.00" departLane="-28523795_0" departPos="5.10" departSpeed="0.00" departDelay="0.00" arrival="27043.00" arrivalLane="-28523795_0" arrivalPos="192.02" arrivalSpeed="13.86" duration="17.00" routeLength="186.92" waitSteps="0" rerouteNo="0" devices="tripinfo_224931_224931_449 hbefa_224931_224931_449" vType="DEFAULT_VEHTYPE" vaporized="">
        <emissions CO_abs="582.035008" CO2_abs="50223.242630" HC_abs="14.935738" PMx_abs="5.362674" NOx_abs="102.539429" fuel_abs="20.023238"/>
    </tripinfo>
    <tripinfo id="211099_211099_442" depart="27013.00" departLane="166155712#0_0" departPos="5.10" departSpeed="0.00" departDelay="0.00" arrival="27043.00" arrivalLane="33469672_0" arrivalPos="142.78" arrivalSpeed="13.62" duration="30.00" routeLength="137.68" waitSteps="0" rerouteNo="1" devices="tripinfo_211099_211099_442 hbefa_211099_211099_442" vType="DEFAULT_VEHTYPE" vaporized="">
        <emissions CO_abs="1014.101295" CO2_abs="77896.188331" HC_abs="24.260513" PMx_abs="8.989295" NOx_abs="163.190744" fuel_abs="31.056013"/>
    </tripinfo>
    <tripinfo id="197472_197472_436" depart="27006.00" departLane="23800191#2_0" departPos="5.10" departSpeed="0.00" departDelay="6.00" arrival="27043.00" arrivalLane="130875842_0" arrivalPos="81.21" arrivalSpeed="12.78" duration="37.00" routeLength="76.11" waitSteps="0" rerouteNo="3" devices="tripinfo_197472_197472_436 hbefa_197472_197472_436" vType="DEFAULT_VEHTYPE" vaporized="">
        <emissions CO_abs="968.371919" CO2_abs="84656.096715" HC_abs="25.379752" PMx_abs="8.823649" NOx_abs="171.602556" fuel_abs="33.751086"/>
    </tripinfo>
    <tripinfo id="212327_212327_442" depart="27014.00" departLane="198147972_0" departPos="5.10" departSpeed="0.00" departDelay="0.00" arrival="27043.00" arrivalLane="4353628#1_0" arrivalPos="68.95" arrivalSpeed="13.19" duration="29.00" routeLength="63.85" waitSteps="0" rerouteNo="3" devices="tripinfo_212327_212327_442 hbefa_212327_212327_442" vType="DEFAULT_VEHTYPE" vaporized="">
        <emissions CO_abs="655.635197" CO2_abs="61968.549738" HC_abs="17.676094" PMx_abs="6.342871" NOx_abs="124.509780" fuel_abs="24.705916"/>
    </tripinfo>
    <tripinfo id="245947_245947_454" depart="27016.00" departLane="-83823403#2_0" departPos="5.10" departSpeed="0.00" departDelay="0.00" arrival="27045.00" arrivalLane="23015533_0" arrivalPos="110.79" arrivalSpeed="13.83" duration="29.00" routeLength="105.69" waitSteps="0" rerouteNo="1" devices="tripinfo_245947_245947_454 hbefa_245947_245947_454" vType="DEFAULT_VEHTYPE" vaporized="">
        <emissions CO_abs="957.130485" CO2_abs="72362.948231" HC_abs="22.820554" PMx_abs="8.423296" NOx_abs="151.871990" fuel_abs="28.849993"/>
    </tripinfo>
    <tripinfo id="65351_65351_379" depart="27013.00" departLane="23471158#0_0" departPos="5.10" departSpeed="0.00" departDelay="13.00" arrival="27045.00" arrivalLane="23471158#10_0" arrivalPos="144.68" arrivalSpeed="27.06" duration="32.00" routeLength="139.58" waitSteps="0" rerouteNo="3" devices="tripinfo_65351_65351_379 hbefa_65351_65351_379" vType="DEFAULT_VEHTYPE" vaporized="">
        <emissions CO_abs="2597.801072" CO2_abs="157814.344483" HC_abs="50.959034" PMx_abs="18.310046" NOx_abs="346.262753" fuel_abs="62.918282"/>
    </tripinfo>
    <tripinfo id="244003_244003_453" depart="27029.00" departLane="-28523795_0" departPos="5.10" departSpeed="0.00" departDelay="0.00" arrival="27046.00" arrivalLane="-28523795_0" arrivalPos="192.02" arrivalSpeed="13.54" duration="17.00" routeLength="186.92" waitSteps="0" rerouteNo="0" devices="tripinfo_244003_244003_453 hbefa_244003_244003_453" vType="DEFAULT_VEHTYPE" vaporized="">
        <emissions CO_abs="511.666612" CO2_abs="44687.939525" HC_abs="13.334015" PMx_abs="4.695252" NOx_abs="90.770124" fuel_abs="17.816397"/>
    </tripinfo>
    <tripinfo id="140107_140107_414" depart="27000.00" departLane="154755117_0" departPos="5.10" departSpeed="0.00" departDelay="0.00" arrival="27046.00" arrivalLane="23800191#0_0" arrivalPos="143.94" arrivalSpeed="13.16" duration="46.00" routeLength="138.84" waitSteps="18" rerouteNo="1" devices="tripinfo_140107_140107_414 hbefa_140107_140107_414" vType="DEFAULT_VEHTYPE" vaporized="">
        <emissions CO_abs="810.544625" CO2_abs="66616.211657" HC_abs="23.549751" PMx_abs="6.653745" NOx_abs="130.577376" fuel_abs="26.558855"/>
    </tripinfo>
    <tripinfo id="227630_227630_450" depart="27017.00" departLane="166155712#0_0" departPos="5.10" departSpeed="0.00" departDelay="0.00" arrival="27047.00" arrivalLane="33469672_0" arrivalPos="142.78" arrivalSpeed="13.72" duration="30.00" routeLength="137.68" waitSteps="0" rerouteNo="1" devices="tripinfo_227630_227630_450 hbefa_227630_227630_450" vType="DEFAULT_VEHTYPE" vaporized="">
        <emissions CO_abs="943.100990" CO2_abs="84312.002800" HC_abs="24.636032" PMx_abs="8.905800" NOx_abs="171.257688" fuel_abs="33.613905"/>
    </tripinfo>
    <tripinfo id="221885_221885_448" depart="27017.00" departLane="-175607927#0_0" departPos="5.10" departSpeed="0.00" departDelay="0.00" arrival="27047.00" arrivalLane="-29214406_0" arrivalPos="179.38" arrivalSpeed="13.01" duration="30.00" routeLength="174.28" waitSteps="0" rerouteNo="1" devices="tripinfo_221885_221885_448 hbefa_221885_221885_448" vType="DEFAULT_VEHTYPE" vaporized="">
        <emissions CO_abs="759.730009" CO2_abs="73047.192756" HC_abs="20.793058" PMx_abs="7.639223" NOx_abs="146.628835" fuel_abs="29.122800"/>
    </tripinfo>
    <tripinfo id="95606_95606_394" depart="27000.00" departLane="8225148_0" departPos="5.10" departSpeed="0.00" departDelay="0.00" arrival="27048.00" arrivalLane="145261451_0" arrivalPos="86.92" arrivalSpeed="13.09" duration="48.00" routeLength="81.82" waitSteps="0" rerouteNo="5" devices="tripinfo_95606_95606_394 hbefa_95606_95606_394" vType="DEFAULT_VEHTYPE" vaporized="">