<?xml version="1.0" encoding="UTF-8"?>

<!-- generated on Mon Feb 24 15:36:53 2014 by SUMO sumo Version 0.19.0
<?xml version="1.0" encoding="UTF-8"?>

<configuration xmlns:xsi="http://www.w3.org/2001/XMLSchema-instance" xsi:noNamespaceSchemaLocation="http://sumo-sim.org/xsd/sumoConfiguration.xsd">

    <input>
        <net-file value="data/map.net.xml"/>
        <route-files value="data/map.rou.xml"/>
    </input>

    <output>
        <tripinfo-output value="data/maptripinfoWO.out.xml"/>
        <save-state.prefix value="data/state"/>
    </output>

    <time>
        <begin value="25200"/>
        <end value="26100"/>
    </time>

    <processing>
        <route-steps value="200"/>
        <scale value="0.8"/>
        <time-to-teleport value="300"/>
        <lanechange.allow-swap value="true"/>
    </processing>

    <report>
        <verbose value="true"/>
        <no-warnings value="false"/>
        <no-step-log value="true"/>
    </report>

    <emissions>
        <device.hbefa.probability value="1"/>
    </emissions>

    <traci_server>
        <remote-port value="8814"/>
    </traci_server>

</configuration>
-->

<tripinfos>
    <tripinfo id="160035_160035_421" depart="25200.00" departLane="8225127_0" departPos="5.10" departSpeed="0.00" departDelay="0.00" arrival="25206.00" arrivalLane="8225127_0" arrivalPos="38.87" arrivalSpeed="10.85" duration="6.00" routeLength="33.77" waitSteps="0" rerouteNo="0" devices="tripinfo_160035_160035_421 hbefa_160035_160035_421" vType="DEFAULT_VEHTYPE" vaporized="">
        <emissions CO_abs="304.509053" CO2_abs="20971.744370" HC_abs="7.245273" PMx_abs="2.558302" NOx_abs="44.331738" fuel_abs="8.361108"/>
    </tripinfo>
    <tripinfo id="146065_146065_416" depart="25200.00" departLane="185767959#0_0" departPos="5.10" departSpeed="0.00" departDelay="0.00" arrival="25210.00" arrivalLane="9207798_1" arrivalPos="76.33" arrivalSpeed="17.50" duration="10.00" routeLength="90.29" waitSteps="0" rerouteNo="0" devices="tripinfo_146065_146065_416 hbefa_146065_146065_416" vType="DEFAULT_VEHTYPE" vaporized="">
        <emissions CO_abs="723.240181" CO2_abs="48660.628082" HC_abs="16.107218" PMx_abs="5.983382" NOx_abs="104.758139" fuel_abs="19.400244"/>
    </tripinfo>
    <tripinfo id="135816_135816_411" depart="25200.00" departLane="23471158#6_0" departPos="5.10" departSpeed="0.00" departDelay="0.00" arrival="25218.00" arrivalLane="23471158#9_0" arrivalPos="213.75" arrivalSpeed="27.30" duration="18.00" routeLength="308.43" waitSteps="0" rerouteNo="0" devices="tripinfo_135816_135816_411 hbefa_135816_135816_411" vType="DEFAULT_VEHTYPE" vaporized="">
        <emissions CO_abs="2211.622335" CO2_abs="124700.868478" HC_abs="42.770961" PMx_abs="16.685309" NOx_abs="281.923443" fuel_abs="49.716365"/>
    </tripinfo>
    <tripinfo id="137129_137129_412" depart="25207.00" departLane="154755085#0_0" departPos="5.10" departSpeed="0.00" departDelay="0.00" arrival="25222.00" arrivalLane="154755085#1_0" arrivalPos="144.95" arrivalSpeed="12.84" duration="15.00" routeLength="164.24" waitSteps="0" rerouteNo="0" devices="tripinfo_137129_137129_412 hbefa_137129_137129_412" vType="DEFAULT_VEHTYPE" vaporized="">
        <emissions CO_abs="459.864891" CO2_abs="40555.569942" HC_abs="11.975672" PMx_abs="4.406595" NOx_abs="82.656489" fuel_abs="16.168885"/>
    </tripinfo>
    <tripinfo id="106717_106717_399" depart="25200.00" departLane="-154755100#1_0" departPos="5.10" departSpeed="0.00" departDelay="0.00" arrival="25223.00" arrivalLane="-154755100#0_0" arrivalPos="171.42" arrivalSpeed="13.85" duration="23.00" routeLength="263.89" waitSteps="0" rerouteNo="0" devices="tripinfo_106717_106717_399 hbefa_106717_106717_399" vType="DEFAULT_VEHTYPE" vaporized="">
        <emissions CO_abs="577.733978" CO2_abs="54564.878464" HC_abs="15.661099" PMx_abs="5.498670" NOx_abs="109.429090" fuel_abs="21.754184"/>
    </tripinfo>
    <tripinfo id="100948_100948_396" depart="25200.00" departLane="154743410#2_0" departPos="5.10" departSpeed="0.00" departDelay="0.00" arrival="25227.00" arrivalLane="9207798_1" arrivalPos="76.33" arrivalSpeed="16.45" duration="27.00" routeLength="167.61" waitSteps="6" rerouteNo="0" devices="tripinfo_100948_100948_396 hbefa_100948_100948_396" vType="DEFAULT_VEHTYPE" vaporized="">
        <emissions CO_abs="1140.537108" CO2_abs="77890.220222" HC_abs="26.236880" PMx_abs="9.465648" NOx_abs="166.076392" fuel_abs="31.053629"/>
    </tripinfo>
    <tripinfo id="106746_106746_399" depart="25200.00" departLane="180723491_0" departPos="5.10" departSpeed="0.00" departDelay="0.00" arrival="25227.00" arrivalLane="154743410#0_0" arrivalPos="108.34" arrivalSpeed="10.81" duration="27.00" routeLength="223.23" waitSteps="0" rerouteNo="0" devices="tripinfo_106746_106746_399 hbefa_106746_106746_399" vType="DEFAULT_VEHTYPE" vaporized="">
        <emissions CO_abs="1288.514073" CO2_abs="86575.996329" HC_abs="28.820447" PMx_abs="10.881814" NOx_abs="186.763468" fuel_abs="34.516511"/>
    </tripinfo>
    <tripinfo id="168852_168852_425" depart="25220.00" departLane="160971552_0" departPos="5.10" departSpeed="0.00" departDelay="3.00" arrival="25230.00" arrivalLane="160971552_0" arrivalPos="96.86" arrivalSpeed="19.64" duration="10.00" routeLength="91.76" waitSteps="0" rerouteNo="0" devices="tripinfo_168852_168852_425 hbefa_168852_168852_425" vType="DEFAULT_VEHTYPE" vaporized="">
        <emissions CO_abs="941.479659" CO2_abs="59480.263586" HC_abs="19.922180" PMx_abs="7.675543" NOx_abs="130.688471" fuel_abs="23.713868"/>
    </tripinfo>
    <tripinfo id="71540_71540_383" depart="25200.00" departLane="150031262#0_0" departPos="5.10" departSpeed="0.00" departDelay="0.00" arrival="25231.00" arrivalLane="145575263_1" arrivalPos="260.32" arrivalSpeed="13.43" duration="31.00" routeLength="322.07" waitSteps="0" rerouteNo="0" devices="tripinfo_71540_71540_383 hbefa_71540_71540_383" vType="DEFAULT_VEHTYPE" vaporized="">
        <emissions CO_abs="876.979263" CO2_abs="73449.383552" HC_abs="22.322667" PMx_abs="7.842851" NOx_abs="150.283891" fuel_abs="29.283141"/>
    </tripinfo>
    <tripinfo id="102085_102085_396" depart="25203.00" departLane="154743410#2_0" departPos="5.10" departSpeed="0.00" departDelay="3.00" arrival="25232.00" arrivalLane="9207798_1" arrivalPos="76.33" arrivalSpeed="17.45" duration="29.00" routeLength="167.61" waitSteps="4" rerouteNo="0" devices="tripinfo_102085_102085_396 hbefa_102085_102085_396" vType="DEFAULT_VEHTYPE" vaporized="">
        <emissions CO_abs="1239.389631" CO2_abs="80956.233291" HC_abs="27.380346" PMx_abs="10.330432" NOx_abs="175.598559" fuel_abs="32.276000"/>
    </tripinfo>
    <tripinfo id="105046_105046_398" depart="25200.00" departLane="36454807#3-AddedOnRampEdge_0" departPos="5.10" departSpeed="0.00" departDelay="0.00" arrival="25232.00" arrivalLane="23471158#9_0" arrivalPos="213.75" arrivalSpeed="26.82" duration="32.00" routeLength="496.50" waitSteps="0" rerouteNo="0" devices="tripinfo_105046_105046_398 hbefa_105046_105046_398" vType="DEFAULT_VEHTYPE" vaporized="">
        <emissions CO_abs="3156.091126" CO2_abs="186450.722074" HC_abs="62.585607" PMx_abs="24.305954" NOx_abs="416.814727" fuel_abs="74.335095"/>
    </tripinfo>
    <tripinfo id="145303_145303_416" depart="25208.00" departLane="-200671461_0" departPos="5.10" departSpeed="0.00" departDelay="0.00" arrival="25232.00" arrivalLane="-50061433_0" arrivalPos="60.25" arrivalSpeed="13.82" duration="24.00" routeLength="212.51" waitSteps="0" rerouteNo="0" devices="tripinfo_145303_145303_416 hbefa_145303_145303_416" vType="DEFAULT_VEHTYPE" vaporized="">
        <emissions CO_abs="1094.628135" CO2_abs="79828.596351" HC_abs="25.598652" PMx_abs="9.499093" NOx_abs="168.910872" fuel_abs="31.826430"/>
    </tripinfo>
    <tripinfo id="95486_95486_394" depart="25200.00" departLane="23799989#0_0" departPos="5.10" departSpeed="0.00" departDelay="0.00" arrival="25233.00" arrivalLane="4400200_0" arrivalPos="166.23" arrivalSpeed="13.16" duration="33.00" routeLength="289.53" waitSteps="0" rerouteNo="0" devices="tripinfo_95486_95486_394 hbefa_95486_95486_394" vType="DEFAULT_VEHTYPE" vaporized="">
        <emissions CO_abs="640.696550" CO2_abs="62390.095563" HC_abs="18.288746" PMx_abs="6.252921" NOx_abs="123.566301" fuel_abs="24.873973"/>
    </tripinfo>
    <tripinfo id="136116_136116_411" depart="25219.00" departLane="154755085#0_0" departPos="5.10" departSpeed="0.00" departDelay="0.00" arrival="25234.00" arrivalLane="154755085#1_0" arrivalPos="144.95" arrivalSpeed="13.51" duration="15.00" routeLength="164.24" waitSteps="0" rerouteNo="0" devices="tripinfo_136116_136116_411 hbefa_136116_136116_411" vType="DEFAULT_VEHTYPE" vaporized="">
        <emissions CO_abs="500.373786" CO2_abs="42343.051792" HC_abs="12.746102" PMx_abs="4.586244" NOx_abs="86.730505" fuel_abs="16.881526"/>
    </tripinfo>
    <tripinfo id="116829_116829_404" depart="25200.00" departLane="4380937#2_0" departPos="5.10" departSpeed="0.00" departDelay="0.00" arrival="25234.00" arrivalLane="145575263_1" arrivalPos="260.32" arrivalSpeed="13.48" duration="34.00" routeLength="357.91" waitSteps="0" rerouteNo="0" devices="tripinfo_116829_116829_404 hbefa_116829_116829_404" vType="DEFAULT_VEHTYPE" vaporized="">
        <emissions CO_abs="927.918333" CO2_abs="78320.862477" HC_abs="23.466552" PMx_abs="8.640724" NOx_abs="160.997441" fuel_abs="31.225327"/>
    </tripinfo>
    <tripinfo id="87270_87270_391" depart="25203.00" departLane="36454807#3-AddedOnRampEdge_0" departPos="5.10" departSpeed="0.00" departDelay="3.00" arrival="25237.00" arrivalLane="23471158#9_0" arrivalPos="213.75" arrivalSpeed="27.77" duration="34.00" routeLength="496.50" waitSteps="0" rerouteNo="0" devices="tripinfo_87270_87270_391 hbefa_87270_87270_391" vType="DEFAULT_VEHTYPE" vaporized="">
        <emissions CO_abs="3297.726513" CO2_abs="191711.216955" HC_abs="65.019726" PMx_abs="25.465784" NOx_abs="430.468794" fuel_abs="76.432373"/>
    </tripinfo>
    <tripinfo id="117072_117072_404" depart="25215.00" departLane="185767958#1_0" departPos="5.10" departSpeed="0.00" departDelay="15.00" arrival="25240.00" arrivalLane="36590979#0-AddedOffRampEdge_0" arrivalPos="103.44" arrivalSpeed="21.67" duration="25.00" routeLength="430.18" waitSteps="0" rerouteNo="0" devices="tripinfo_117072_117072_404 hbefa_117072_117072_404" vType="DEFAULT_VEHTYPE" vaporized="">
        <emissions CO_abs="2091.922215" CO2_abs="129350.016638" HC_abs="42.081092" PMx_abs="16.198258" NOx_abs="285.766143" fuel_abs="51.569919"/>
    </tripinfo>
    <tripinfo id="149330_149330_417" depart="25200.00" departLane="154755085#0_0" departPos="5.10" departSpeed="0.00" departDelay="0.00" arrival="25241.00" arrivalLane="4400311#0_0" arrivalPos="280.07" arrivalSpeed="7.22" duration="41.00" routeLength="299.36" waitSteps="0" rerouteNo="0" devices="tripinfo_149330_149330_417 hbefa_149330_149330_417" vType="DEFAULT_VEHTYPE" vaporized="">
        <emissions CO_abs="287.305928" CO2_abs="44508.368853" HC_abs="12.231510" PMx_abs="3.545692" NOx_abs="80.592631" fuel_abs="17.744799"/>
    </tripinfo>
    <tripinfo id="161230_161230_421" depart="25228.00" departLane="28557537#1_0" departPos="5.10" departSpeed="0.00" departDelay="0.00" arrival="25241.00" arrivalLane="28557537#1_0" arrivalPos="170.84" arrivalSpeed="25.81" duration="13.00" routeLength="165.74" waitSteps="0" rerouteNo="0" devices="tripinfo_161230_161230_421 hbefa_161230_161230_421" vType="DEFAULT_VEHTYPE" vaporized="">
        <emissions CO_abs="1777.593343" CO2_abs="101143.812068" HC_abs="34.974332" PMx_abs="13.946707" NOx_abs="228.947210" fuel_abs="40.324500"/>
    </tripinfo>
    <tripinfo id="106412_106412_399" depart="25200.00" departLane="4380937#0_0" departPos="5.10" departSpeed="0.00" departDelay="0.00" arrival="25243.00" arrivalLane="145575263_1" arrivalPos="260.32" arrivalSpeed="13.33" duration="43.00" routeLength="481.40" waitSteps="0" rerouteNo="0" devices="tripinfo_106412_106412_399 hbefa_106412_106412_399" vType="DEFAULT_VEHTYPE" vaporized="">
        <emissions CO_abs="1113.680630" CO2_abs="95047.141266" HC_abs="28.252998" PMx_abs="10.359826" NOx_abs="194.989800" fuel_abs="37.893840"/>
    </tripinfo>
    <tripinfo id="130658_130658_409" depart="25218.00" departLane="23799644_0" departPos="5.10" departSpeed="0.00" departDelay="0.00" arrival="25243.00" arrivalLane="4400449#0_0" arrivalPos="32.06" arrivalSpeed="13.52" duration="25.00" routeLength="218.58" waitSteps="0" rerouteNo="0" devices="tripinfo_130658_130658_409 hbefa_130658_130658_409" vType="DEFAULT_VEHTYPE" vaporized="">
        <emissions CO_abs="804.629622" CO2_abs="66482.244575" HC_abs="20.557670" PMx_abs="7.205947" NOx_abs="136.055528" fuel_abs="26.505446"/>
    </tripinfo>
    <tripinfo id="147897_147897_416" depart="25223.00" departLane="23015529#0_0" departPos="5.10" departSpeed="0.00" departDelay="0.00" arrival="25244.00" arrivalLane="37866521#1_0" arrivalPos="52.00" arrivalSpeed="12.93" duration="21.00" routeLength="231.77" waitSteps="0" rerouteNo="0" devices="tripinfo_147897_147897_416 hbefa_147897_147897_416" vType="DEFAULT_VEHTYPE" vaporized="">
        <emissions CO_abs="509.755279" CO2_abs="49130.851428" HC_abs="14.010178" PMx_abs="5.009904" NOx_abs="98.336380" fuel_abs="19.587720"/>
    </tripinfo>
    <tripinfo id="148292_148292_417" depart="25200.00" departLane="69366484#0_0" departPos="5.10" departSpeed="0.00" departDelay="0.00" arrival="25246.00" arrivalLane="23493260#7_0" arrivalPos="59.96" arrivalSpeed="13.35" duration="46.00" routeLength="451.35" waitSteps="0" rerouteNo="0" devices="tripinfo_148292_148292_417 hbefa_148292_148292_417" vType="DEFAULT_VEHTYPE" vaporized="">
        <emissions CO_abs="848.150918" CO2_abs="82871.077458" HC_abs="23.976369" PMx_abs="8.206729" NOx_abs="164.428903" fuel_abs="33.039428"/>
    </tripinfo>
    <tripinfo id="113896_113896_402" depart="25203.00" departLane="4380937#0_0" departPos="5.10" departSpeed="0.00" departDelay="3.00" arrival="25246.00" arrivalLane="145575263_1" arrivalPos="260.32" arrivalSpeed="13.61" duration="43.00" routeLength="481.40" waitSteps="0" rerouteNo="0" devices="tripinfo_113896_113896_402 hbefa_113896_113896_402" vType="DEFAULT_VEHTYPE" vaporized="">
        <emissions CO_abs="1063.710186" CO2_abs="95967.247588" HC_abs="27.823488" PMx_abs="10.156879" NOx_abs="194.918594" fuel_abs="38.260675"/>
    </tripinfo>
    <tripinfo id="114306_114306_402" depart="25200.00" departLane="36564599_0" departPos="5.10" departSpeed="0.00" departDelay="0.00" arrival="25246.00" arrivalLane="36564599_0" arrivalPos="101.75" arrivalSpeed="1.90" duration="46.00" routeLength="96.65" waitSteps="0" rerouteNo="0" devices="tripinfo_114306_114306_402 hbefa_114306_114306_402" vType="DEFAULT_VEHTYPE" vaporized="">
        <emissions CO_abs="152.494550" CO2_abs="21606.227641" HC_abs="8.243389" PMx_abs="1.226891" NOx_abs="34.840538" fuel_abs="8.614066"/>
    </tripinfo>
    <tripinfo id="147145_147145_416" depart="25200.00" departLane="154755073#4_0" departPos="5.10" departSpeed="0.00" departDelay="0.00" arrival="25247.00" arrivalLane="2837877_0" arrivalPos="210.13" arrivalSpeed="7.28" duration="47.00" routeLength="336.64" waitSteps="0" rerouteNo="0" devices="tripinfo_147145_147145_416 hbefa_147145_147145_416" vType="DEFAULT_VEHTYPE" vaporized="">
        <emissions CO_abs="421.449598" CO2_abs="54886.353286" HC_abs="15.610842" PMx_abs="4.678903" NOx_abs="101.870341" fuel_abs="21.882340"/>
    </tripinfo>
    <tripinfo id="103997_103997_397" depart="25200.00" departLane="145474195#0_0" departPos="5.10" departSpeed="0.00" departDelay="0.00" arrival="25250.00" arrivalLane="145575263_1" arrivalPos="260.32" arrivalSpeed="12.59" duration="50.00" routeLength="582.15" waitSteps="0" rerouteNo="0" devices="tripinfo_103997_103997_397 hbefa_103997_103997_397" vType="DEFAULT_VEHTYPE" vaporized="">
        <emissions CO_abs="1032.633979" CO2_abs="103724.540419" HC_abs="28.842570" PMx_abs="10.271449" NOx_abs="206.316394" fuel_abs="41.353394"/>
    </tripinfo>
    <tripinfo id="106411_106411_399" depart="25205.00" departLane="154743410#2_0" departPos="5.10" departSpeed="0.00" departDelay="5.00" arrival="25251.00" arrivalLane="9207798_1" arrivalPos="76.33" arrivalSpeed="19.22" duration="46.00" routeLength="167.61" waitSteps="13" rerouteNo="0" devices="tripinfo_106411_106411_399 hbefa_106411_106411_399" vType="DEFAULT_VEHTYPE" vaporized="">
        <emissions CO_abs="1439.667766" CO2_abs="95740.589672" HC_abs="33.855272" PMx_abs="11.679282" NOx_abs="203.039003" fuel_abs="38.170295"/>
    </tripinfo>
    <tripinfo id="122923_122923_406" depart="25200.00" departLane="36454807#1_0" departPos="5.10" departSpeed="0.00" departDelay="0.00" arrival="25251.00" arrivalLane="23471158#9_0" arrivalPos="213.75" arrivalSpeed="26.54" duration="51.00" routeLength="534.80" waitSteps="0" rerouteNo="0" devices="tripinfo_122923_122923_406 hbefa_122923_122923_406" vType="DEFAULT_VEHTYPE" vaporized="">
        <emissions CO_abs="3071.139815" CO2_abs="191068.860510" HC_abs="64.307999" PMx_abs="24.097301" NOx_abs="419.133556" fuel_abs="76.176251"/>
    </tripinfo>
    <tripinfo id="108143_108143_400" depart="25221.00" departLane="23799644_0" departPos="5.10" departSpeed="0.00" departDelay="0.00" arrival="25252.00" arrivalLane="64487982#4_0" arrivalPos="68.97" arrivalSpeed="8.04" duration="31.00" routeLength="255.49" waitSteps="0" rerouteNo="0" devices="tripinfo_108143_108143_400 hbefa_108143_108143_400" vType="DEFAULT_VEHTYPE" vaporized="">
        <emissions CO_abs="580.862418" CO2_abs="56786.462416" HC_abs="16.786325" PMx_abs="5.774627" NOx_abs="112.281967" fuel_abs="22.639887"/>
    </tripinfo>
    <tripinfo id="136568_136568_411" depart="25232.00" departLane="8225144#1_0" departPos="5.10" departSpeed="0.00" departDelay="0.00" arrival="25252.00" arrivalLane="23015778_0" arrivalPos="93.11" arrivalSpeed="12.66" duration="20.00" routeLength="223.78" waitSteps="0" rerouteNo="0" devices="tripinfo_136568_136568_411 hbefa_136568_136568_411" vType="DEFAULT_VEHTYPE" vaporized="">
        <emissions CO_abs="498.977254" CO2_abs="50893.847349" HC_abs="14.092860" PMx_abs="5.249741" NOx_abs="101.423784" fuel_abs="20.290602"/>
    </tripinfo>
    <tripinfo id="145302_145302_416" depart="25215.00" departLane="150031221_0" departPos="5.10" departSpeed="0.00" departDelay="0.00" arrival="25253.00" arrivalLane="150031221_0" arrivalPos="279.03" arrivalSpeed="7.88" duration="38.00" routeLength="273.93" waitSteps="0" rerouteNo="0" devices="tripinfo_145302_145302_416 hbefa_145302_145302_416" vType="DEFAULT_VEHTYPE" vaporized="">
        <emissions CO_abs="337.897608" CO2_abs="46955.657059" HC_abs="13.189519" PMx_abs="3.814559" NOx_abs="86.157166" fuel_abs="18.720494"/>
    </tripinfo>
    <tripinfo id="145277_145277_416" depart="25203.00" departLane="145474195#0_0" departPos="5.10" departSpeed="0.00" departDelay="3.00" arrival="25254.00" arrivalLane="145575263_1" arrivalPos="260.32" arrivalSpeed="13.00" duration="51.00" routeLength="582.15" waitSteps="0" rerouteNo="0" devices="tripinfo_145277_145277_416 hbefa_145277_145277_416" vType="DEFAULT_VEHTYPE" vaporized="">
        <emissions CO_abs="1145.902406" CO2_abs="106723.515547" HC_abs="30.680079" PMx_abs="11.044474" NOx_abs="215.119426" fuel_abs="42.549036"/>
    </tripinfo>
    <tripinfo id="119400_119400_405" depart="25211.00" departLane="154743410#1_0" departPos="5.10" departSpeed="0.00" departDelay="11.00" arrival="25255.00" arrivalLane="187965761#0_0" arrivalPos="97.49" arrivalSpeed="8.02" duration="44.00" routeLength="355.85" waitSteps="0" rerouteNo="0" devices="tripinfo_119400_119400_405 hbefa_119400_119400_405" vType="DEFAULT_VEHTYPE" vaporized="">
        <emissions CO_abs="946.504232" CO2_abs="82372.986994" HC_abs="25.341082" PMx_abs="8.977575" NOx_abs="166.525324" fuel_abs="32.840838"/>
    </tripinfo>
    <tripinfo id="128669_128669_408" depart="25201.00" departLane="151057637#2_0" departPos="5.10" departSpeed="0.00" departDelay="0.00" arrival="25256.00" arrivalLane="23471158#9_0" arrivalPos="213.75" arrivalSpeed="27.34" duration="55.00" routeLength="917.61" waitSteps="0" rerouteNo="0" devices="tripinfo_128669_128669_408 hbefa_128669_128669_408" vType="DEFAULT_VEHTYPE" vaporized="">
        <emissions CO_abs="4550.770551" CO2_abs="276890.275639" HC_abs="90.648159" PMx_abs="34.345192" NOx_abs="612.486209" fuel_abs="110.392029"/>
    </tripinfo>
    <tripinfo id="155268_155268_420" depart="25200.00" departLane="150039002#2_0" departPos="5.10" departSpeed="0.00" departDelay="0.00" arrival="25258.00" arrivalLane="36590979#4_0" arrivalPos="41.97" arrivalSpeed="21.76" duration="58.00" routeLength="538.03" waitSteps="13" rerouteNo="0" devices="tripinfo_155268_155268_420 hbefa_155268_155268_420" vType="DEFAULT_VEHTYPE" vaporized="">
        <emissions CO_abs="2030.979763" CO2_abs="143249.707689" HC_abs="47.164496" PMx_abs="16.495956" NOx_abs="302.007759" fuel_abs="57.111481"/>
    </tripinfo>
    <tripinfo id="143430_143430_415" depart="25205.00" departLane="151057637#2_0" departPos="5.10" departSpeed="0.00" departDelay="0.00" arrival="25259.00" arrivalLane="23471158#9_0" arrivalPos="213.75" arrivalSpeed="27.75" duration="54.00" routeLength="917.61" waitSteps="0" rerouteNo="0" devices="tripinfo_143430_143430_415 hbefa_143430_143430_415" vType="DEFAULT_VEHTYPE" vaporized="">
        <emissions CO_abs="4661.497285" CO2_abs="285622.026757" HC_abs="92.781091" PMx_abs="34.773834" NOx_abs="629.649954" fuel_abs="113.873273"/>
    </tripinfo>
    <tripinfo id="141739_141739_415" depart="25200.00" departLane="23471151#1_0" departPos="5.10" departSpeed="0.00" departDelay="0.00" arrival="25259.00" arrivalLane="8225102_0" arrivalPos="87.82" arrivalSpeed="7.53" duration="59.00" routeLength="732.25" waitSteps="0" rerouteNo="0" devices="tripinfo_141739_141739_415 hbefa_141739_141739_415" vType="DEFAULT_VEHTYPE" vaporized="">
        <emissions CO_abs="2493.086801" CO2_abs="177946.925618" HC_abs="55.588676" PMx_abs="20.604299" NOx_abs="378.561563" fuel_abs="70.944752"/>
    </tripinfo>
    <tripinfo id="109590_109590_401" depart="25202.00" departLane="150031205#1_0" departPos="5.10" departSpeed="0.00" departDelay="2.00" arrival="25261.00" arrivalLane="145575263_1" arrivalPos="260.32" arrivalSpeed="13.14" duration="59.00" routeLength="678.67" waitSteps="0" rerouteNo="0" devices="tripinfo_109590_109590_401 hbefa_109590_109590_401" vType="DEFAULT_VEHTYPE" vaporized="">
        <emissions CO_abs="1440.619650" CO2_abs="133284.768772" HC_abs="38.163593" PMx_abs="13.970964" NOx_abs="269.708040" fuel_abs="53.138602"/>
    </tripinfo>
    <tripinfo id="149028_149028_417" depart="25233.00" departLane="-200671461_0" departPos="5.10" departSpeed="0.00" departDelay="0.00" arrival="25261.00" arrivalLane="-22873531#1_0" arrivalPos="92.66" arrivalSpeed="13.57" duration="28.00" routeLength="244.92" waitSteps="0" rerouteNo="0" devices="tripinfo_149028_149028_417 hbefa_149028_149028_417" vType="DEFAULT_VEHTYPE" vaporized="">
        <emissions CO_abs="1144.652212" CO2_abs="84870.363678" HC_abs="27.125807" PMx_abs="10.004505" NOx_abs="178.735686" fuel_abs="33.836505"/>
    </tripinfo>
    <tripinfo id="115398_115398_403" depart="25212.00" departLane="185767958#1_0" departPos="5.10" departSpeed="0.00" departDelay="12.00" arrival="25262.00" arrivalLane="23471158#9_0" arrivalPos="213.75" arrivalSpeed="27.12" duration="50.00" routeLength="795.05" waitSteps="0" rerouteNo="0" devices="tripinfo_115398_115398_403 hbefa_115398_115398_403" vType="DEFAULT_VEHTYPE" vaporized="">
        <emissions CO_abs="4669.128358" CO2_abs="271527.496720" HC_abs="91.215514" PMx_abs="35.451325" NOx_abs="609.009911" fuel_abs="108.253952"/>
    </tripinfo>
    <tripinfo id="116049_116049_403" depart="25205.00" departLane="150031205#1_0" departPos="5.10" departSpeed="0.00" departDelay="5.00" arrival="25264.00" arrivalLane="145575263_1" arrivalPos="260.32" arrivalSpeed="13.45" duration="59.00" routeLength="678.67" waitSteps="0" rerouteNo="0" devices="tripinfo_116049_116049_403 hbefa_116049_116049_403" vType="DEFAULT_VEHTYPE" vaporized="">
        <emissions CO_abs="1460.456739" CO2_abs="131845.121816" HC_abs="38.136165" PMx_abs="13.960415" NOx_abs="267.895857" fuel_abs="52.564636"/>
    </tripinfo>
    <tripinfo id="174347_174347_427" depart="25256.00" departLane="23015778_0" departPos="5.10" departSpeed="0.00" departDelay="0.00" arrival="25266.00" arrivalLane="23015778_0" arrivalPos="93.11" arrivalSpeed="13.12" duration="10.00" routeLength="88.01" waitSteps="0" rerouteNo="0" devices="tripinfo_174347_174347_427 hbefa_174347_174347_427" vType="DEFAULT_VEHTYPE" vaporized="">
        <emissions CO_abs="499.687088" CO2_abs="34423.176621" HC_abs="11.447047" PMx_abs="4.259470" NOx_abs="73.611085" fuel_abs="13.723988"/>
    </tripinfo>
    <tripinfo id="150894_150894_418" depart="25239.00" departLane="-175607927#0_0" departPos="5.10" departSpeed="0.00" departDelay="0.00" arrival="25268.00" arrivalLane="4400305_1" arrivalPos="163.40" arrivalSpeed="13.79" duration="29.00" routeLength="301.08" waitSteps="0" rerouteNo="0" devices="tripinfo_150894_150894_418 hbefa_150894_150894_418" vType="DEFAULT_VEHTYPE" vaporized="">
        <emissions CO_abs="847.727792" CO2_abs="75030.793300" HC_abs="22.122368" PMx_abs="7.992207" NOx_abs="152.538372" fuel_abs="29.913628"/>
    </tripinfo>
    <tripinfo id="128656_128656_408" depart="25202.00" departLane="36454807#3-AddedOnRampEdge_0" departPos="5.10" departSpeed="0.00" departDelay="2.00" arrival="25269.00" arrivalLane="129833339#1_0" arrivalPos="41.68" arrivalSpeed="13.63" duration="67.00" routeLength="728.25" waitSteps="1" rerouteNo="0" devices="tripinfo_128656_128656_408 hbefa_128656_128656_408" vType="DEFAULT_VEHTYPE" vaporized="">
        <emissions CO_abs="3023.549344" CO2_abs="205160.168719" HC_abs="66.268555" PMx_abs="24.847949" NOx_abs="441.560410" fuel_abs="81.794242"/>
    </tripinfo>
    <tripinfo id="150644_150644_418" depart="25232.00" departLane="-69366482#2_0" departPos="5.10" departSpeed="0.00" departDelay="0.00" arrival="25270.00" arrivalLane="37866521#1_0" arrivalPos="52.00" arrivalSpeed="13.09" duration="38.00" routeLength="401.29" waitSteps="0" rerouteNo="0" devices="tripinfo_150644_150644_418 hbefa_150644_150644_418" vType="DEFAULT_VEHTYPE" vaporized="">
        <emissions CO_abs="589.405261" CO2_abs="70289.319389" HC_abs="18.904233" PMx_abs="6.202012" NOx_abs="134.922009" fuel_abs="28.023280"/>
    </tripinfo>
    <tripinfo id="140838_140838_414" depart="25200.00" departLane="165511531#1_0" departPos="5.10" departSpeed="0.00" departDelay="0.00" arrival="25271.00" arrivalLane="23493260#7_0" arrivalPos="59.96" arrivalSpeed="13.29" duration="71.00" routeLength="689.80" waitSteps="0" rerouteNo="0" devices="tripinfo_140838_140838_414 hbefa_140838_140838_414" vType="DEFAULT_VEHTYPE" vaporized="">
        <emissions CO_abs="1393.316249" CO2_abs="141754.027087" HC_abs="40.254156" PMx_abs="14.017674" NOx_abs="279.813325" fuel_abs="56.515159"/>
    </tripinfo>
    <tripinfo id="128373_128373_408" depart="25239.00" departLane="22873499#0_0" departPos="5.10" departSpeed="0.00" departDelay="0.00" arrival="25272.00" arrivalLane="-22873540#5_0" arrivalPos="187.63" arrivalSpeed="13.40" duration="33.00" routeLength="370.16" waitSteps="0" rerouteNo="0" devices="tripinfo_128373_128373_408 hbefa_128373_128373_408" vType="DEFAULT_VEHTYPE" vaporized="">
        <emissions CO_abs="897.121774" CO2_abs="82420.649362" HC_abs="23.721805" PMx_abs="8.699333" NOx_abs="166.847841" fuel_abs="32.859853"/>
    </tripinfo>
    <tripinfo id="142640_142640_415" depart="25200.00" departLane="8096212#1_0" departPos="5.10" departSpeed="0.00" departDelay="0.00" arrival="25275.00" arrivalLane="23493260#7_0" arrivalPos="59.96" arrivalSpeed="13.55" duration="75.00" routeLength="713.59" waitSteps="0" rerouteNo="0" devices="tripinfo_142640_142640_415 hbefa_142640_142640_415" vType="DEFAULT_VEHTYPE" vaporized="">
        <emissions CO_abs="1514.343726" CO2_abs="143659.808060" HC_abs="41.709127" PMx_abs="14.759580" NOx_abs="287.591062" fuel_abs="57.274963"/>
    </tripinfo>
    <tripinfo id="147629_147629_416" depart="25234.00" departLane="31694310#0_0" departPos="5.10" departSpeed="0.00" departDelay="5.00" arrival="25275.00" arrivalLane="-150031186_0" arrivalPos="162.24" arrivalSpeed="13.38" duration="41.00" routeLength="438.54" waitSteps="0" rerouteNo="0" devices="tripinfo_147629_147629_416 hbefa_147629_147629_416" vType="DEFAULT_VEHTYPE" vaporized="">
        <emissions CO_abs="1693.377628" CO2_abs="128212.822991" HC_abs="39.817690" PMx_abs="14.649966" NOx_abs="269.281895" fuel_abs="51.116490"/>
    </tripinfo>
    <tripinfo id="157577_157577_421" depart="25203.00" departLane="-165515969#3_0" departPos="5.10" departSpeed="0.00" departDelay="3.00" arrival="25275.00" arrivalLane="37866521#1_0" arrivalPos="52.00" arrivalSpeed="12.65" duration="72.00" routeLength="837.58" waitSteps="0" rerouteNo="0" devices="tripinfo_157577_157577_421 hbefa_157577_157577_421" vType="DEFAULT_VEHTYPE" vaporized="">
        <emissions CO_abs="3007.704562" CO2_abs="217980.022220" HC_abs="68.077252" PMx_abs="25.743095" NOx_abs="463.209333" fuel_abs="86.905322"/>
    </tripinfo>
    <tripinfo id="133563_133563_410" depart="25250.00" departLane="4400448_0" departPos="5.10" departSpeed="0.00" departDelay="0.00" arrival="25277.00" arrivalLane="4400448_0" arrivalPos="197.56" arrivalSpeed="8.02" duration="27.00" routeLength="192.46" waitSteps="0" rerouteNo="0" devices="tripinfo_133563_133563_410 hbefa_133563_133563_410" vType="DEFAULT_VEHTYPE" vaporized="">
        <emissions CO_abs="219.141401" CO2_abs="35038.330408" HC_abs="9.554773" PMx_abs="2.813906" NOx_abs="63.183869" fuel_abs="13.969241"/>
    </tripinfo>