<?xml version="1.0" encoding="UTF-8"?>

<!-- generated on Thu Apr 17 18:19:16 2014 by SUMO sumo Version dev-SVN-r15641
<?xml version="1.0" encoding="UTF-8"?>

<configuration xmlns:xsi="http://www.w3.org/2001/XMLSchema-instance" xsi:noNamespaceSchemaLocation="http://sumo-sim.org/xsd/sumoConfiguration.xsd">

    <input>
        <net-file value="data/map.net.xml"/>
        <route-files value="data/map.rou.xml"/>
    </input>

    <output>
        <tripinfo-output value="data/maptripinfoWO.out.xml"/>
        <save-state.prefix value="data/state"/>
    </output>

    <time>
        <begin value="27000"/>
        <end value="27900"/>
    </time>

    <processing>
        <route-steps value="200"/>
        <scale value="0.8"/>
        <time-to-teleport value="300"/>
        <lanechange.allow-swap value="true"/>
    </processing>

    <report>
        <verbose value="true"/>
        <no-warnings value="true"/>
        <no-step-log value="true"/>
    </report>

    <emissions>
        <device.hbefa.probability value="1"/>
    </emissions>

    <traci_server>
        <remote-port value="8814"/>
    </traci_server>

</configuration>
-->

<tripinfos>
    <tripinfo id="136022_136022_411" depart="27003.00" departLane="23800191#2_0" departPos="5.10" departSpeed="0.00" departDelay="3.00" arrival="27009.00" arrivalLane="23800191#2_0" arrivalPos="38.41" arrivalSpeed="9.92" duration="6.00" routeLength="33.31" waitSteps="0" rerouteNo="0" devices="tripinfo_136022_136022_411 hbefa_136022_136022_411" vType="DEFAULT_VEHTYPE" vaporized="">
        <emissions CO_abs="223.331584" CO2_abs="17809.323067" HC_abs="5.914012" PMx_abs="1.889590" NOx_abs="36.034792" fuel_abs="7.100300"/>
    </tripinfo>
    <tripinfo id="182087_182087_431" depart="27000.00" departLane="4380937#2_0" departPos="5.10" departSpeed="0.00" departDelay="0.00" arrival="27011.00" arrivalLane="4380937#3_0" arrivalPos="72.76" arrivalSpeed="13.62" duration="11.00" routeLength="103.50" waitSteps="0" rerouteNo="0" devices="tripinfo_182087_182087_431 hbefa_182087_182087_431" vType="DEFAULT_VEHTYPE" vaporized="">
        <emissions CO_abs="507.341604" CO2_abs="37691.968185" HC_abs="12.011211" PMx_abs="4.470021" NOx_abs="79.431641" fuel_abs="15.027207"/>
    </tripinfo>
    <tripinfo id="72912_72912_384" depart="27003.00" departLane="9207803_0" departPos="5.10" departSpeed="0.00" departDelay="3.00" arrival="27013.00" arrivalLane="9207803_0" arrivalPos="69.23" arrivalSpeed="7.42" duration="10.00" routeLength="64.13" waitSteps="0" rerouteNo="0" devices="tripinfo_72912_72912_384 hbefa_72912_72912_384" vType="DEFAULT_VEHTYPE" vaporized="">
        <emissions CO_abs="177.479210" CO2_abs="17021.051303" HC_abs="5.342038" PMx_abs="1.725595" NOx_abs="33.187816" fuel_abs="6.786029"/>
    </tripinfo>
    <tripinfo id="92380_92380_392" depart="27000.00" departLane="-154755073#3_0" departPos="5.10" departSpeed="0.00" departDelay="0.00" arrival="27015.00" arrivalLane="-154755073#3_0" arrivalPos="102.52" arrivalSpeed="7.60" duration="15.00" routeLength="97.42" waitSteps="0" rerouteNo="0" devices="tripinfo_92380_92380_392 hbefa_92380_92380_392" vType="DEFAULT_VEHTYPE" vaporized="">
        <emissions CO_abs="237.769807" CO2_abs="21148.996177" HC_abs="6.756472" PMx_abs="2.264068" NOx_abs="42.109931" fuel_abs="8.431777"/>
    </tripinfo>
    <tripinfo id="251564_251564_457" depart="27002.00" departLane="51113317_0" departPos="5.10" departSpeed="0.00" departDelay="0.00" arrival="27015.00" arrivalLane="51113317_0" arrivalPos="125.08" arrivalSpeed="13.37" duration="13.00" routeLength="119.98" waitSteps="0" rerouteNo="0" devices="tripinfo_251564_251564_457 hbefa_251564_251564_457" vType="DEFAULT_VEHTYPE" vaporized="">
        <emissions CO_abs="468.860319" CO2_abs="40118.688158" HC_abs="12.132763" PMx_abs="4.312508" NOx_abs="81.803076" fuel_abs="15.994705"/>
    </tripinfo>
    <tripinfo id="84049_84049_390" depart="27006.00" departLane="9207803_0" departPos="5.10" departSpeed="0.00" departDelay="6.00" arrival="27017.00" arrivalLane="9207803_0" arrivalPos="69.23" arrivalSpeed="7.69" duration="11.00" routeLength="64.13" waitSteps="0" rerouteNo="0" devices="tripinfo_84049_84049_390 hbefa_84049_84049_390" vType="DEFAULT_VEHTYPE" vaporized="">
        <emissions CO_abs="167.434231" CO2_abs="17756.252638" HC_abs="5.512391" PMx_abs="1.647745" NOx_abs="33.717724" fuel_abs="7.079142"/>
    </tripinfo>
    <tripinfo id="232041_232041_451" depart="27002.00" departLane="28523795_0" departPos="5.10" departSpeed="0.00" departDelay="0.00" arrival="27019.00" arrivalLane="28523795_0" arrivalPos="192.02" arrivalSpeed="13.03" duration="17.00" routeLength="186.92" waitSteps="0" rerouteNo="0" devices="tripinfo_232041_232041_451 hbefa_232041_232041_451" vType="DEFAULT_VEHTYPE" vaporized="">
        <emissions CO_abs="461.733138" CO2_abs="38170.436302" HC_abs="11.624060" PMx_abs="4.267001" NOx_abs="78.643726" fuel_abs="15.217967"/>
    </tripinfo>
    <tripinfo id="105435_105435_398" depart="27003.00" departLane="145474196#1_0" departPos="5.10" departSpeed="0.00" departDelay="3.00" arrival="27021.00" arrivalLane="145474196#1_0" arrivalPos="94.12" arrivalSpeed="4.41" duration="18.00" routeLength="89.02" waitSteps="4" rerouteNo="0" devices="tripinfo_105435_105435_398 hbefa_105435_105435_398" vType="DEFAULT_VEHTYPE" vaporized="">
        <emissions CO_abs="558.567165" CO2_abs="35782.653994" HC_abs="12.770320" PMx_abs="4.641745" NOx_abs="77.102284" fuel_abs="14.265988"/>
    </tripinfo>
    <tripinfo id="135880_135880_411" depart="27000.00" departLane="150039002#2_0" departPos="5.10" departSpeed="0.00" departDelay="0.00" arrival="27022.00" arrivalLane="150039002#2_0" arrivalPos="249.40" arrivalSpeed="13.71" duration="22.00" routeLength="244.30" waitSteps="0" rerouteNo="0" devices="tripinfo_135880_135880_411 hbefa_135880_135880_411" vType="DEFAULT_VEHTYPE" vaporized="">
        <emissions CO_abs="486.580150" CO2_abs="47538.258952" HC_abs="13.611685" PMx_abs="4.687047" NOx_abs="94.410689" fuel_abs="18.952777"/>
    </tripinfo>
    <tripinfo id="75851_75851_386" depart="27002.00" departLane="28542995#2_0" departPos="5.10" departSpeed="0.00" departDelay="2.00" arrival="27022.00" arrivalLane="23493181#0_0" arrivalPos="88.20" arrivalSpeed="7.80" duration="20.00" routeLength="144.84" waitSteps="1" rerouteNo="0" devices="tripinfo_75851_75851_386 hbefa_75851_75851_386" vType="DEFAULT_VEHTYPE" vaporized="">
        <emissions CO_abs="620.833720" CO2_abs="44359.918718" HC_abs="14.829595" PMx_abs="5.321369" NOx_abs="93.450005" fuel_abs="17.685612"/>
    </tripinfo>
    <tripinfo id="219187_219187_446" depart="27000.00" departLane="144935690_0" departPos="5.10" departSpeed="0.00" departDelay="0.00" arrival="27022.00" arrivalLane="25997632_0" arrivalPos="136.14" arrivalSpeed="13.39" duration="22.00" routeLength="241.37" waitSteps="0" rerouteNo="0" devices="tripinfo_219187_219187_446 hbefa_219187_219187_446" vType="DEFAULT_VEHTYPE" vaporized="">
        <emissions CO_abs="652.529035" CO2_abs="55156.257661" HC_abs="16.510781" PMx_abs="5.965438" NOx_abs="113.129284" fuel_abs="21.989956"/>
    </tripinfo>
    <tripinfo id="206737_206737_440" depart="27007.00" departLane="-29206900_0" departPos="5.10" departSpeed="0.00" departDelay="0.00" arrival="27022.00" arrivalLane="29207110_0" arrivalPos="28.94" arrivalSpeed="13.14" duration="15.00" routeLength="103.46" waitSteps="0" rerouteNo="0" devices="tripinfo_206737_206737_440 hbefa_206737_206737_440" vType="DEFAULT_VEHTYPE" vaporized="">
        <emissions CO_abs="568.151518" CO2_abs="43376.028192" HC_abs="14.035782" PMx_abs="5.072056" NOx_abs="90.280402" fuel_abs="17.293350"/>
    </tripinfo>
    <tripinfo id="110327_110327_401" depart="27000.00" departLane="53212166#0_0" departPos="5.10" departSpeed="0.00" departDelay="0.00" arrival="27023.00" arrivalLane="28542995#2_2" arrivalPos="61.74" arrivalSpeed="12.74" duration="23.00" routeLength="231.82" waitSteps="0" rerouteNo="0" devices="tripinfo_110327_110327_401 hbefa_110327_110327_401" vType="DEFAULT_VEHTYPE" vaporized="">
        <emissions CO_abs="433.323966" CO2_abs="47164.012181" HC_abs="13.206209" PMx_abs="4.502377" NOx_abs="91.672570" fuel_abs="18.803569"/>
    </tripinfo>
    <tripinfo id="140107_140107_414" depart="27000.00" departLane="154755117_0" departPos="5.10" departSpeed="0.00" departDelay="0.00" arrival="27023.00" arrivalLane="23800191#0_0" arrivalPos="143.94" arrivalSpeed="13.18" duration="23.00" routeLength="212.88" waitSteps="0" rerouteNo="0" devices="tripinfo_140107_140107_414 hbefa_140107_140107_414" vType="DEFAULT_VEHTYPE" vaporized="">
        <emissions CO_abs="534.499545" CO2_abs="51401.947156" HC_abs="14.995083" PMx_abs="5.249061" NOx_abs="102.348471" fuel_abs="20.493168"/>
    </tripinfo>
    <tripinfo id="225242_225242_449" depart="27000.00" departLane="154755124_0" departPos="5.10" departSpeed="0.00" departDelay="0.00" arrival="27024.00" arrivalLane="4380937#3_1" arrivalPos="72.76" arrivalSpeed="12.94" duration="24.00" routeLength="189.24" waitSteps="0" rerouteNo="0" devices="tripinfo_225242_225242_449 hbefa_225242_225242_449" vType="DEFAULT_VEHTYPE" vaporized="">
        <emissions CO_abs="725.333963" CO2_abs="58645.611750" HC_abs="18.472690" PMx_abs="6.657074" NOx_abs="120.691371" fuel_abs="23.381100"/>
    </tripinfo>
    <tripinfo id="148867_148867_417" depart="27006.00" departLane="3065455_0" departPos="5.10" departSpeed="0.00" departDelay="6.00" arrival="27024.00" arrivalLane="23800191#0_0" arrivalPos="143.94" arrivalSpeed="13.34" duration="18.00" routeLength="194.49" waitSteps="0" rerouteNo="0" devices="tripinfo_148867_148867_417 hbefa_148867_148867_417" vType="DEFAULT_VEHTYPE" vaporized="">
        <emissions CO_abs="567.277011" CO2_abs="48380.817714" HC_abs="14.533076" PMx_abs="5.308450" NOx_abs="99.078943" fuel_abs="19.288691"/>
    </tripinfo>
    <tripinfo id="225541_225541_450" depart="27000.00" departLane="9207803_0" departPos="5.10" departSpeed="0.00" departDelay="0.00" arrival="27024.00" arrivalLane="154755073#3_0" arrivalPos="102.52" arrivalSpeed="7.11" duration="24.00" routeLength="166.65" waitSteps="0" rerouteNo="0" devices="tripinfo_225541_225541_450 hbefa_225541_225541_450" vType="DEFAULT_VEHTYPE" vaporized="">
        <emissions CO_abs="283.077431" CO2_abs="34410.692806" HC_abs="10.096883" PMx_abs="2.969091" NOx_abs="64.315980" fuel_abs="13.719010"/>
    </tripinfo>
    <tripinfo id="141415_141415_415" depart="27003.00" departLane="150039002#2_0" departPos="5.10" departSpeed="0.00" departDelay="3.00" arrival="27025.00" arrivalLane="150039002#2_0" arrivalPos="249.40" arrivalSpeed="12.65" duration="22.00" routeLength="244.30" waitSteps="0" rerouteNo="0" devices="tripinfo_141415_141415_415 hbefa_141415_141415_415" vType="DEFAULT_VEHTYPE" vaporized="">
        <emissions CO_abs="632.838959" CO2_abs="52385.379422" HC_abs="15.847103" PMx_abs="5.687606" NOx_abs="107.775858" fuel_abs="20.885248"/>
    </tripinfo>
    <tripinfo id="136596_136596_411" depart="27003.00" departLane="131651824_0" departPos="5.10" departSpeed="0.00" departDelay="3.00" arrival="27026.00" arrivalLane="4400211#0_0" arrivalPos="197.56" arrivalSpeed="11.24" duration="23.00" routeLength="253.49" waitSteps="0" rerouteNo="0" devices="tripinfo_136596_136596_411 hbefa_136596_136596_411" vType="DEFAULT_VEHTYPE" vaporized="">
        <emissions CO_abs="659.880754" CO2_abs="54777.863175" HC_abs="16.548598" PMx_abs="6.092326" NOx_abs="112.911121" fuel_abs="21.839095"/>
    </tripinfo>
    <tripinfo id="220353_220353_447" depart="27001.00" departLane="-165515969#3_0" departPos="5.10" departSpeed="0.00" departDelay="0.00" arrival="27026.00" arrivalLane="-165511531#0_0" arrivalPos="53.73" arrivalSpeed="12.98" duration="25.00" routeLength="345.81" waitSteps="0" rerouteNo="0" devices="tripinfo_220353_220353_447 hbefa_220353_220353_447" vType="DEFAULT_VEHTYPE" vaporized="">
        <emissions CO_abs="2248.408596" CO2_abs="130868.037257" HC_abs="44.611773" PMx_abs="17.592066" NOx_abs="294.205058" fuel_abs="52.175101"/>
    </tripinfo>
    <tripinfo id="134089_134089_411" depart="27000.00" departLane="23800191#2_0" departPos="5.10" departSpeed="0.00" departDelay="0.00" arrival="27028.00" arrivalLane="4400211#0_0" arrivalPos="197.56" arrivalSpeed="13.86" duration="28.00" routeLength="291.90" waitSteps="0" rerouteNo="0" devices="tripinfo_134089_134089_411 hbefa_134089_134089_411" vType="DEFAULT_VEHTYPE" vaporized="">
        <emissions CO_abs="878.033884" CO2_abs="71979.654796" HC_abs="21.882392" PMx_abs="8.026181" NOx_abs="148.672814" fuel_abs="28.697183"/>
    </tripinfo>
    <tripinfo id="162999_162999_422" depart="27000.00" departLane="150031230#2_0" departPos="5.10" departSpeed="0.00" departDelay="0.00" arrival="27029.00" arrivalLane="129833341#0_1" arrivalPos="129.85" arrivalSpeed="12.64" duration="29.00" routeLength="303.50" waitSteps="0" rerouteNo="0" devices="tripinfo_162999_162999_422 hbefa_162999_162999_422" vType="DEFAULT_VEHTYPE" vaporized="">
        <emissions CO_abs="884.513152" CO2_abs="78584.812410" HC_abs="23.147671" PMx_abs="8.258523" NOx_abs="159.383239" fuel_abs="31.330561"/>
    </tripinfo>
    <tripinfo id="84113_84113_390" depart="27000.00" departLane="150031205#0_0" departPos="5.10" departSpeed="0.00" departDelay="0.00" arrival="27029.00" arrivalLane="23471158#10_0" arrivalPos="144.68" arrivalSpeed="27.12" duration="29.00" routeLength="462.65" waitSteps="2" rerouteNo="0" devices="tripinfo_84113_84113_390 hbefa_84113_84113_390" vType="DEFAULT_VEHTYPE" vaporized="">
        <emissions CO_abs="3410.363094" CO2_abs="189043.110234" HC_abs="65.144677" PMx_abs="25.619563" NOx_abs="429.600287" fuel_abs="75.368661"/>
    </tripinfo>
    <tripinfo id="188835_188835_434" depart="27006.00" departLane="187965762#1_0" departPos="5.10" departSpeed="0.00" departDelay="6.00" arrival="27030.00" arrivalLane="187965762#2_0" arrivalPos="85.18" arrivalSpeed="7.77" duration="24.00" routeLength="168.92" waitSteps="0" rerouteNo="0" devices="tripinfo_188835_188835_434 hbefa_188835_188835_434" vType="DEFAULT_VEHTYPE" vaporized="">
        <emissions CO_abs="256.230020" CO2_abs="30929.744469" HC_abs="8.980675" PMx_abs="2.730234" NOx_abs="58.163068" fuel_abs="12.331210"/>
    </tripinfo>
    <tripinfo id="118681_118681_405" depart="27000.00" departLane="23471158#6_0" departPos="5.10" departSpeed="0.00" departDelay="0.00" arrival="27031.00" arrivalLane="32856811#2_0" arrivalPos="144.91" arrivalSpeed="12.82" duration="31.00" routeLength="453.34" waitSteps="0" rerouteNo="0" devices="tripinfo_118681_118681_405 hbefa_118681_118681_405" vType="DEFAULT_VEHTYPE" vaporized="">
        <emissions CO_abs="1959.526989" CO2_abs="127118.402710" HC_abs="40.960485" PMx_abs="15.173791" NOx_abs="276.352827" fuel_abs="50.680198"/>
    </tripinfo>
    <tripinfo id="187318_187318_433" depart="27013.00" departLane="-83823403#2_0" departPos="5.10" departSpeed="0.00" departDelay="0.00" arrival="27031.00" arrivalLane="-83823403#2_0" arrivalPos="184.87" arrivalSpeed="13.01" duration="18.00" routeLength="179.77" waitSteps="0" rerouteNo="0" devices="tripinfo_187318_187318_433 hbefa_187318_187318_433" vType="DEFAULT_VEHTYPE" vaporized="">
        <emissions CO_abs="467.006075" CO2_abs="41588.886770" HC_abs="12.503927" PMx_abs="4.247919" NOx_abs="83.708715" fuel_abs="16.580851"/>
    </tripinfo>
    <tripinfo id="212444_212444_443" depart="27003.00" departLane="166155712#0_0" departPos="5.10" departSpeed="0.00" departDelay="0.00" arrival="27031.00" arrivalLane="33469672_0" arrivalPos="142.78" arrivalSpeed="13.85" duration="28.00" routeLength="317.06" waitSteps="0" rerouteNo="0" devices="tripinfo_212444_212444_443 hbefa_212444_212444_443" vType="DEFAULT_VEHTYPE" vaporized="">
        <emissions CO_abs="847.509523" CO2_abs="74779.340741" HC_abs="21.807925" PMx_abs="8.048503" NOx_abs="152.672072" fuel_abs="29.813380"/>
    </tripinfo>
    <tripinfo id="122617_122617_406" depart="27000.00" departLane="131651824_0" departPos="5.10" departSpeed="0.00" departDelay="0.00" arrival="27031.00" arrivalLane="130875842_0" arrivalPos="81.21" arrivalSpeed="12.60" duration="31.00" routeLength="334.70" waitSteps="0" rerouteNo="0" devices="tripinfo_122617_122617_406 hbefa_122617_122617_406" vType="DEFAULT_VEHTYPE" vaporized="">
        <emissions CO_abs="869.165346" CO2_abs="73910.935545" HC_abs="22.145268" PMx_abs="8.030219" NOx_abs="151.443625" fuel_abs="29.467156"/>
    </tripinfo>
    <tripinfo id="104726_104726_398" depart="27000.00" departLane="23471158#5_0" departPos="5.10" departSpeed="0.00" departDelay="0.00" arrival="27033.00" arrivalLane="32856811#2_0" arrivalPos="144.91" arrivalSpeed="13.75" duration="33.00" routeLength="464.21" waitSteps="0" rerouteNo="0" devices="tripinfo_104726_104726_398 hbefa_104726_104726_398" vType="DEFAULT_VEHTYPE" vaporized="">
        <emissions CO_abs="1977.380145" CO2_abs="134598.089226" HC_abs="42.521896" PMx_abs="15.873874" NOx_abs="289.586176" fuel_abs="53.662236"/>
    </tripinfo>
    <tripinfo id="208001_208001_441" depart="27001.00" departLane="-83823403#2_0" departPos="5.10" departSpeed="0.00" departDelay="0.00" arrival="27033.00" arrivalLane="23015529#0_0" arrivalPos="184.87" arrivalSpeed="13.47" duration="32.00" routeLength="364.64" waitSteps="0" rerouteNo="0" devices="tripinfo_208001_208001_441 hbefa_208001_208001_441" vType="DEFAULT_VEHTYPE" vaporized="">
        <emissions CO_abs="956.655953" CO2_abs="81164.379431" HC_abs="24.099260" PMx_abs="8.835940" NOx_abs="166.716401" fuel_abs="32.358996"/>
    </tripinfo>
    <tripinfo id="217202_217202_446" depart="27007.00" departLane="-83823403#2_0" departPos="5.10" departSpeed="0.00" departDelay="0.00" arrival="27033.00" arrivalLane="23015533_0" arrivalPos="110.79" arrivalSpeed="13.07" duration="26.00" routeLength="290.56" waitSteps="0" rerouteNo="0" devices="tripinfo_217202_217202_446 hbefa_217202_217202_446" vType="DEFAULT_VEHTYPE" vaporized="">
        <emissions CO_abs="835.991713" CO2_abs="64235.774535" HC_abs="20.032671" PMx_abs="7.393843" NOx_abs="134.474935" fuel_abs="25.609816"/>
    </tripinfo>
    <tripinfo id="146563_146563_416" depart="27006.00" departLane="129833340#2_0" departPos="5.10" departSpeed="0.00" departDelay="6.00" arrival="27034.00" arrivalLane="154755096_0" arrivalPos="66.91" arrivalSpeed="13.62" duration="28.00" routeLength="417.33" waitSteps="0" rerouteNo="0" devices="tripinfo_146563_146563_416 hbefa_146563_146563_416" vType="DEFAULT_VEHTYPE" vaporized="">
        <emissions CO_abs="2281.532347" CO2_abs="136858.647280" HC_abs="45.647353" PMx_abs="17.713275" NOx_abs="304.608431" fuel_abs="54.563484"/>
    </tripinfo>
    <tripinfo id="144652_144652_416" depart="27000.00" departLane="3065455_0" departPos="5.10" departSpeed="0.00" departDelay="0.00" arrival="27036.00" arrivalLane="130659365_0" arrivalPos="223.21" arrivalSpeed="5.63" duration="36.00" routeLength="365.42" waitSteps="0" rerouteNo="0" devices="tripinfo_144652_144652_416 hbefa_144652_144652_416" vType="DEFAULT_VEHTYPE" vaporized="">
        <emissions CO_abs="795.467370" CO2_abs="72148.735941" HC_abs="21.135398" PMx_abs="7.616313" NOx_abs="145.954296" fuel_abs="28.764596"/>
    </tripinfo>
    <tripinfo id="154499_154499_420" depart="27000.00" departLane="28542995#0_0" departPos="5.10" departSpeed="0.00" departDelay="0.00" arrival="27037.00" arrivalLane="23493260#4_1" arrivalPos="126.60" arrivalSpeed="13.59" duration="37.00" routeLength="435.19" waitSteps="0" rerouteNo="0" devices="tripinfo_154499_154499_420 hbefa_154499_154499_420" vType="DEFAULT_VEHTYPE" vaporized="">
        <emissions CO_abs="979.585497" CO2_abs="87406.874684" HC_abs="25.367164" PMx_abs="9.233056" NOx_abs="177.918423" fuel_abs="34.847786"/>
    </tripinfo>
    <tripinfo id="108705_108705_400" depart="27000.00" departLane="36454807#3_0" departPos="5.10" departSpeed="0.00" departDelay="0.00" arrival="27037.00" arrivalLane="32856811#2_0" arrivalPos="144.91" arrivalSpeed="13.27" duration="37.00" routeLength="538.02" waitSteps="0" rerouteNo="0" devices="tripinfo_108705_108705_400 hbefa_108705_108705_400" vType="DEFAULT_VEHTYPE" vaporized="">
        <emissions CO_abs="2616.349597" CO2_abs="166036.196304" HC_abs="53.682260" PMx_abs="20.494550" NOx_abs="364.067977" fuel_abs="66.196143"/>
    </tripinfo>
    <tripinfo id="103310_103310_397" depart="27000.00" departLane="83703645_0" departPos="5.10" departSpeed="0.00" departDelay="0.00" arrival="27037.00" arrivalLane="23493177#0_0" arrivalPos="166.52" arrivalSpeed="7.51" duration="37.00" routeLength="279.85" waitSteps="0" rerouteNo="0" devices="tripinfo_103310_103310_397 hbefa_103310_103310_397" vType="DEFAULT_VEHTYPE" vaporized="">
        <emissions CO_abs="621.672046" CO2_abs="62300.434716" HC_abs="18.493800" PMx_abs="6.130644" NOx_abs="121.969502" fuel_abs="24.838222"/>
    </tripinfo>
    <tripinfo id="238887_238887_451" depart="27010.00" departLane="-83823403#2_0" departPos="5.10" departSpeed="0.00" departDelay="0.00" arrival="27037.00" arrivalLane="23015533_0" arrivalPos="110.79" arrivalSpeed="13.79" duration="27.00" routeLength="290.56" waitSteps="0" rerouteNo="0" devices="tripinfo_238887_238887_451 hbefa_238887_238887_451" vType="DEFAULT_VEHTYPE" vaporized="">
        <emissions CO_abs="724.151825" CO2_abs="68966.264634" HC_abs="19.781937" PMx_abs="6.893657" NOx_abs="138.005720" fuel_abs="27.495795"/>
    </tripinfo>
    <tripinfo id="138122_138122_412" depart="27009.00" departLane="131651824_0" departPos="5.10" departSpeed="0.00" departDelay="9.00" arrival="27038.00" arrivalLane="130875842_0" arrivalPos="81.21" arrivalSpeed="13.30" duration="29.00" routeLength="334.70" waitSteps="0" rerouteNo="0" devices="tripinfo_138122_138122_412 hbefa_138122_138122_412" vType="DEFAULT_VEHTYPE" vaporized="">
        <emissions CO_abs="890.690466" CO2_abs="72000.107152" HC_abs="21.788806" PMx_abs="8.126685" NOx_abs="149.573730" fuel_abs="28.705340"/>
    </tripinfo>
    <tripinfo id="244420_244420_453" depart="27015.00" departLane="-165515969#3_0" departPos="5.10" departSpeed="0.00" departDelay="0.00" arrival="27039.00" arrivalLane="-165511531#0_0" arrivalPos="53.73" arrivalSpeed="13.21" duration="24.00" routeLength="345.81" waitSteps="0" rerouteNo="0" devices="tripinfo_244420_244420_453 hbefa_244420_244420_453" vType="DEFAULT_VEHTYPE" vaporized="">
        <emissions CO_abs="2154.677339" CO2_abs="129836.081615" HC_abs="43.477756" PMx_abs="16.791215" NOx_abs="288.665855" fuel_abs="51.763682"/>
    </tripinfo>
    <tripinfo id="218769_218769_446" depart="27003.00" departLane="-55940134_0" departPos="5.10" departSpeed="0.00" departDelay="3.00" arrival="27040.00" arrivalLane="-144935692#1_1" arrivalPos="103.61" arrivalSpeed="13.67" duration="37.00" routeLength="447.77" waitSteps="0" rerouteNo="0" devices="tripinfo_218769_218769_446 hbefa_218769_218769_446" vType="DEFAULT_VEHTYPE" vaporized="">
        <emissions CO_abs="634.839522" CO2_abs="81715.259986" HC_abs="20.841096" PMx_abs="7.234547" NOx_abs="156.594409" fuel_abs="32.578637"/>
    </tripinfo>
    <tripinfo id="171544_171544_426" depart="27000.00" departLane="187965762#1_0" departPos="5.10" departSpeed="0.00" departDelay="0.00" arrival="27040.00" arrivalLane="23800191#0_0" arrivalPos="143.94" arrivalSpeed="13.03" duration="40.00" routeLength="368.51" waitSteps="0" rerouteNo="0" devices="tripinfo_171544_171544_426 hbefa_171544_171544_426" vType="DEFAULT_VEHTYPE" vaporized="">
        <emissions CO_abs="509.135764" CO2_abs="61768.015162" HC_abs="17.071966" PMx_abs="5.523444" NOx_abs="117.518176" fuel_abs="24.625960"/>
    </tripinfo>
    <tripinfo id="103637_103637_397" depart="27000.00" departLane="145474196#1_0" departPos="5.10" departSpeed="0.00" departDelay="0.00" arrival="27041.00" arrivalLane="150039002#2_0" arrivalPos="249.40" arrivalSpeed="13.66" duration="41.00" routeLength="361.28" waitSteps="4" rerouteNo="0" devices="tripinfo_103637_103637_397 hbefa_103637_103637_397" vType="DEFAULT_VEHTYPE" vaporized="">
        <emissions CO_abs="906.337023" CO2_abs="81383.901991" HC_abs="24.218194" PMx_abs="8.332998" NOx_abs="163.935398" fuel_abs="32.446514"/>
    </tripinfo>
    <tripinfo id="184987_184987_431" depart="27000.00" departLane="-186463490#0_0" departPos="5.10" departSpeed="0.00" departDelay="0.00" arrival="27042.00" arrivalLane="-144935692#1_1" arrivalPos="103.61" arrivalSpeed="13.57" duration="42.00" routeLength="500.46" waitSteps="0" rerouteNo="0" devices="tripinfo_184987_184987_431 hbefa_184987_184987_431" vType="DEFAULT_VEHTYPE" vaporized="">
        <emissions CO_abs="612.951935" CO2_abs="77742.916072" HC_abs="20.128023" PMx_abs="6.698769" NOx_abs="148.503855" fuel_abs="30.994922"/>
    </tripinfo>
    <tripinfo id="101376_101376_396" depart="27003.00" departLane="23471158#0_0" departPos="5.10" departSpeed="0.00" departDelay="3.00" arrival="27042.00" arrivalLane="32856811#2_0" arrivalPos="144.91" arrivalSpeed="13.49" duration="39.00" routeLength="664.02" waitSteps="0" rerouteNo="0" devices="tripinfo_101376_101376_396 hbefa_101376_101376_396" vType="DEFAULT_VEHTYPE" vaporized="">
        <emissions CO_abs="3086.006338" CO2_abs="194611.685599" HC_abs="62.419530" PMx_abs="23.596149" NOx_abs="426.800319" fuel_abs="77.588789"/>
    </tripinfo>
    <tripinfo id="211099_211099_442" depart="27013.00" departLane="166155712#0_0" departPos="5.10" departSpeed="0.00" departDelay="0.00" arrival="27042.00" arrivalLane="33469672_0" arrivalPos="142.78" arrivalSpeed="13.09" duration="29.00" routeLength="317.06" waitSteps="0" rerouteNo="0" devices="tripinfo_211099_211099_442 hbefa_211099_211099_442" vType="DEFAULT_VEHTYPE" vaporized="">
        <emissions CO_abs="745.250603" CO2_abs="71435.960504" HC_abs="20.470216" PMx_abs="7.104336" NOx_abs="142.650183" fuel_abs="28.480426"/>
    </tripinfo>
    <tripinfo id="197472_197472_436" depart="27006.00" departLane="23800191#2_0" departPos="5.10" departSpeed="0.00" departDelay="6.00" arrival="27042.00" arrivalLane="130875842_0" arrivalPos="81.21" arrivalSpeed="13.36" duration="36.00" routeLength="373.11" waitSteps="0" rerouteNo="0" devices="tripinfo_197472_197472_436 hbefa_197472_197472_436" vType="DEFAULT_VEHTYPE" vaporized="">
        <emissions CO_abs="923.855654" CO2_abs="81275.553882" HC_abs="24.150550" PMx_abs="8.630316" NOx_abs="165.116255" fuel_abs="32.403317"/>
    </tripinfo>
    <tripinfo id="245947_245947_454" depart="27016.00" departLane="-83823403#2_0" departPos="5.10" departSpeed="0.00" departDelay="0.00" arrival="27043.00" arrivalLane="23015533_0" arrivalPos="110.79" arrivalSpeed="13.85" duration="27.00" routeLength="290.56" waitSteps="0" rerouteNo="0" devices="tripinfo_245947_245947_454 hbefa_245947_245947_454" vType="DEFAULT_VEHTYPE" vaporized="">
        <emissions CO_abs="804.143889" CO2_abs="73753.548925" HC_abs="21.295514" PMx_abs="7.806934" NOx_abs="149.297184" fuel_abs="29.404413"/>
    </tripinfo>
    <tripinfo id="224931_224931_449" depart="27026.00" departLane="-28523795_0" departPos="5.10" departSpeed="0.00" departDelay="0.00" arrival="27044.00" arrivalLane="-28523795_0" arrivalPos="192.02" arrivalSpeed="12.93" duration="18.00" routeLength="186.92" waitSteps="0" rerouteNo="0" devices="tripinfo_224931_224931_449 hbefa_224931_224931_449" vType="DEFAULT_VEHTYPE" vaporized="">
        <emissions CO_abs="543.522087" CO2_abs="43506.076846" HC_abs="13.417072" PMx_abs="4.927411" NOx_abs="90.216107" fuel_abs="17.345204"/>
    </tripinfo>
    <tripinfo id="192246_192246_435" depart="27018.00" departLane="2511537#2_0" departPos="5.10" departSpeed="0.00" departDelay="18.00" arrival="27044.00" arrivalLane="2511537#2_0" arrivalPos="191.15" arrivalSpeed="7.99" duration="26.00" routeLength="186.05" waitSteps="0" rerouteNo="0" devices="tripinfo_192246_192246_435 hbefa_192246_192246_435" vType="DEFAULT_VEHTYPE" vaporized="">
        <emissions CO_abs="288.400212" CO2_abs="33766.161292" HC_abs="9.931434" PMx_abs="2.914521" NOx_abs="63.534929" fuel_abs="13.462046"/>
    </tripinfo>
    <tripinfo id="212327_212327_442" depart="27014.00" departLane="198147972_0" departPos="5.10" departSpeed="0.00" departDelay="0.00" arrival="27044.00" arrivalLane="4353628#1_0" arrivalPos="68.95" arrivalSpeed="13.10" duration="30.00" routeLength="339.08" waitSteps="0" rerouteNo="0" devices="tripinfo_212327_212327_442 hbefa_212327_212327_442" vType="DEFAULT_VEHTYPE" vaporized="">
        <emissions CO_abs="556.317196" CO2_abs="59172.450757" HC_abs="16.385647" PMx_abs="5.534807" NOx_abs="115.868833" fuel_abs="23.591155"/>
    </tripinfo>
    <tripinfo id="95606_95606_394" depart="27000.00" departLane="8225148_0" departPos="5.10" departSpeed="0.00" departDelay="0.00" arrival="27045.00" arrivalLane="145261451_0" arrivalPos="86.92" arrivalSpeed="13.14" duration="45.00" routeLength="515.94" waitSteps="0" rerouteNo="0" devices="tripinfo_95606_95606_394 hbefa_95606_95606_394" vType="DEFAULT_VEHTYPE" vaporized="">
        <emissions CO_abs="1287.430639" CO2_abs="112592.014940" HC_abs="33.016095" PMx_abs="11.958385" NOx_abs="229.820897" fuel_abs="44.888714"/>
    </tripinfo>
    <tripinfo id="101939_101939_396" depart="27006.00" departLane="23471158#0_0" departPos="5.10" departSpeed="0.00" departDelay="6.00" arrival="27045.00" arrivalLane="32856811#2_0" arrivalPos="144.91" arrivalSpeed="12.99" duration="39.00" routeLength="664.02" waitSteps="0" rerouteNo="0" devices="tripinfo_101939_101939_396 hbefa_101939_101939_396" vType="DEFAULT_VEHTYPE" vaporized="">
        <emissions CO_abs="2240.134514" CO2_abs="145497.534663" HC_abs="46.073096" PMx_abs="17.201250" NOx_abs="316.198758" fuel_abs="58.007712"/>
    </tripinfo>
    <tripinfo id="227630_227630_450" depart="27017.00" departLane="166155712#0_0" departPos="5.10" departSpeed="0.00" departDelay="0.00" arrival="27046.00" arrivalLane="33469672_0" arrivalPos="142.78" arrivalSpeed="12.92" duration="29.00" routeLength="317.06" waitSteps="0" rerouteNo="0" devices="tripinfo_227630_227630_450 hbefa_227630_227630_450" vType="DEFAULT_VEHTYPE" vaporized="">