<?xml version="1.0" encoding="UTF-8"?>

<!-- generated on Mon Apr 14 17:52:27 2014 by SUMO sumo Version 0.19.0
<?xml version="1.0" encoding="UTF-8"?>

<configuration xmlns:xsi="http://www.w3.org/2001/XMLSchema-instance" xsi:noNamespaceSchemaLocation="http://sumo-sim.org/xsd/sumoConfiguration.xsd">

    <input>
        <net-file value="data/map.net.xml"/>
        <route-files value="data/map.rou.xml"/>
    </input>

    <output>
        <tripinfo-output value="data/maptripinfoLocal.out.xml"/>
        <save-state.prefix value="data/state"/>
    </output>

    <time>
        <begin value="27000"/>
        <end value="27900"/>
    </time>

    <processing>
        <route-steps value="200"/>
        <scale value="0.8"/>
        <time-to-teleport value="300"/>
        <lanechange.allow-swap value="true"/>
    </processing>

    <report>
        <verbose value="true"/>
        <no-warnings value="true"/>
        <no-step-log value="true"/>
    </report>

    <emissions>
        <device.hbefa.probability value="1"/>
    </emissions>

    <traci_server>
        <remote-port value="8814"/>
    </traci_server>

</configuration>
-->

<tripinfos>
    <tripinfo id="136022_136022_411" depart="27003.00" departLane="23800191#2_0" departPos="5.10" departSpeed="0.00" departDelay="3.00" arrival="27009.00" arrivalLane="23800191#2_0" arrivalPos="38.41" arrivalSpeed="8.90" duration="6.00" routeLength="33.31" waitSteps="0" rerouteNo="0" devices="tripinfo_136022_136022_411 hbefa_136022_136022_411" vType="DEFAULT_VEHTYPE" vaporized="">
        <emissions CO_abs="225.730605" CO2_abs="19330.330169" HC_abs="6.303550" PMx_abs="1.950002" NOx_abs="38.413411" fuel_abs="7.706702"/>
    </tripinfo>
    <tripinfo id="182087_182087_431" depart="27000.00" departLane="4380937#2_0" departPos="5.10" departSpeed="0.00" departDelay="0.00" arrival="27011.00" arrivalLane="4380937#3_0" arrivalPos="72.76" arrivalSpeed="13.70" duration="11.00" routeLength="103.50" waitSteps="0" rerouteNo="1" devices="tripinfo_182087_182087_431 hbefa_182087_182087_431" vType="DEFAULT_VEHTYPE" vaporized="">
        <emissions CO_abs="490.333817" CO2_abs="36829.588503" HC_abs="11.678528" PMx_abs="4.388760" NOx_abs="77.517455" fuel_abs="14.683390"/>
    </tripinfo>
    <tripinfo id="72912_72912_384" depart="27003.00" departLane="9207803_0" departPos="5.10" departSpeed="0.00" departDelay="3.00" arrival="27014.00" arrivalLane="9207803_0" arrivalPos="69.23" arrivalSpeed="8.29" duration="11.00" routeLength="64.13" waitSteps="0" rerouteNo="0" devices="tripinfo_72912_72912_384 hbefa_72912_72912_384" vType="DEFAULT_VEHTYPE" vaporized="">
        <emissions CO_abs="250.593530" CO2_abs="23433.510720" HC_abs="7.390995" PMx_abs="2.352379" NOx_abs="45.987421" fuel_abs="9.342577"/>
    </tripinfo>
    <tripinfo id="251564_251564_457" depart="27002.00" departLane="51113317_0" departPos="5.10" departSpeed="0.00" departDelay="0.00" arrival="27014.00" arrivalLane="51113317_0" arrivalPos="125.08" arrivalSpeed="13.07" duration="12.00" routeLength="119.98" waitSteps="0" rerouteNo="0" devices="tripinfo_251564_251564_457 hbefa_251564_251564_457" vType="DEFAULT_VEHTYPE" vaporized="">
        <emissions CO_abs="499.367624" CO2_abs="36754.572522" HC_abs="11.814063" PMx_abs="4.417377" NOx_abs="77.590009" fuel_abs="14.653482"/>
    </tripinfo>
    <tripinfo id="92380_92380_392" depart="27000.00" departLane="-154755073#3_0" departPos="5.10" departSpeed="0.00" departDelay="0.00" arrival="27015.00" arrivalLane="-154755073#3_0" arrivalPos="102.52" arrivalSpeed="7.63" duration="15.00" routeLength="97.42" waitSteps="0" rerouteNo="0" devices="tripinfo_92380_92380_392 hbefa_92380_92380_392" vType="DEFAULT_VEHTYPE" vaporized="">
        <emissions CO_abs="251.858961" CO2_abs="21660.825482" HC_abs="6.985861" PMx_abs="2.343395" NOx_abs="43.372445" fuel_abs="8.635835"/>
    </tripinfo>
    <tripinfo id="84049_84049_390" depart="27006.00" departLane="9207803_0" departPos="5.10" departSpeed="0.00" departDelay="6.00" arrival="27016.00" arrivalLane="9207803_0" arrivalPos="69.23" arrivalSpeed="8.27" duration="10.00" routeLength="64.13" waitSteps="0" rerouteNo="0" devices="tripinfo_84049_84049_390 hbefa_84049_84049_390" vType="DEFAULT_VEHTYPE" vaporized="">
        <emissions CO_abs="219.008277" CO2_abs="17678.011673" HC_abs="5.823509" PMx_abs="1.915857" NOx_abs="35.807702" fuel_abs="7.047949"/>
    </tripinfo>
    <tripinfo id="232041_232041_451" depart="27002.00" departLane="28523795_0" departPos="5.10" departSpeed="0.00" departDelay="0.00" arrival="27019.00" arrivalLane="28523795_0" arrivalPos="192.02" arrivalSpeed="12.98" duration="17.00" routeLength="186.92" waitSteps="0" rerouteNo="0" devices="tripinfo_232041_232041_451 hbefa_232041_232041_451" vType="DEFAULT_VEHTYPE" vaporized="">
        <emissions CO_abs="495.483715" CO2_abs="39915.031870" HC_abs="12.276420" PMx_abs="4.450032" NOx_abs="82.566213" fuel_abs="15.913510"/>
    </tripinfo>
    <tripinfo id="135880_135880_411" depart="27000.00" departLane="150039002#2_0" departPos="5.10" departSpeed="0.00" departDelay="0.00" arrival="27022.00" arrivalLane="150039002#2_0" arrivalPos="249.40" arrivalSpeed="13.85" duration="22.00" routeLength="244.30" waitSteps="0" rerouteNo="0" devices="tripinfo_135880_135880_411 hbefa_135880_135880_411" vType="DEFAULT_VEHTYPE" vaporized="">
        <emissions CO_abs="563.770515" CO2_abs="57521.056844" HC_abs="16.004840" PMx_abs="5.738678" NOx_abs="114.081136" fuel_abs="22.932769"/>
    </tripinfo>
    <tripinfo id="219187_219187_446" depart="27000.00" departLane="144935690_0" departPos="5.10" departSpeed="0.00" departDelay="0.00" arrival="27022.00" arrivalLane="25997632_0" arrivalPos="136.14" arrivalSpeed="12.67" duration="22.00" routeLength="241.37" waitSteps="0" rerouteNo="0" devices="tripinfo_219187_219187_446 hbefa_219187_219187_446" vType="DEFAULT_VEHTYPE" vaporized="">
        <emissions CO_abs="621.319693" CO2_abs="51443.946228" HC_abs="15.561917" PMx_abs="5.648006" NOx_abs="105.939519" fuel_abs="20.509913"/>
    </tripinfo>
    <tripinfo id="206737_206737_440" depart="27007.00" departLane="-29206900_0" departPos="5.10" departSpeed="0.00" departDelay="0.00" arrival="27022.00" arrivalLane="29207110_0" arrivalPos="28.94" arrivalSpeed="12.46" duration="15.00" routeLength="103.46" waitSteps="0" rerouteNo="0" devices="tripinfo_206737_206737_440 hbefa_206737_206737_440" vType="DEFAULT_VEHTYPE" vaporized="">
        <emissions CO_abs="470.485031" CO2_abs="38116.511239" HC_abs="12.240833" PMx_abs="4.259937" NOx_abs="77.835572" fuel_abs="15.196462"/>
    </tripinfo>
    <tripinfo id="225242_225242_449" depart="27000.00" departLane="154755124_0" departPos="5.10" departSpeed="0.00" departDelay="0.00" arrival="27024.00" arrivalLane="4380937#3_1" arrivalPos="72.76" arrivalSpeed="13.09" duration="24.00" routeLength="103.50" waitSteps="0" rerouteNo="1" devices="tripinfo_225242_225242_449 hbefa_225242_225242_449" vType="DEFAULT_VEHTYPE" vaporized="">
        <emissions CO_abs="618.291813" CO2_abs="51134.335279" HC_abs="16.073322" PMx_abs="5.538607" NOx_abs="104.223917" fuel_abs="20.386469"/>
    </tripinfo>
    <tripinfo id="110327_110327_401" depart="27000.00" departLane="53212166#0_0" departPos="5.10" departSpeed="0.00" departDelay="0.00" arrival="27024.00" arrivalLane="28542995#2_2" arrivalPos="61.74" arrivalSpeed="13.60" duration="24.00" routeLength="231.82" waitSteps="0" rerouteNo="0" devices="tripinfo_110327_110327_401 hbefa_110327_110327_401" vType="DEFAULT_VEHTYPE" vaporized="">
        <emissions CO_abs="530.683545" CO2_abs="47534.834028" HC_abs="14.251581" PMx_abs="4.983494" NOx_abs="95.783739" fuel_abs="18.951407"/>
    </tripinfo>
    <tripinfo id="148867_148867_417" depart="27006.00" departLane="3065455_0" departPos="5.10" departSpeed="0.00" departDelay="6.00" arrival="27024.00" arrivalLane="23800191#0_0" arrivalPos="143.94" arrivalSpeed="12.89" duration="18.00" routeLength="194.49" waitSteps="0" rerouteNo="0" devices="tripinfo_148867_148867_417 hbefa_148867_148867_417" vType="DEFAULT_VEHTYPE" vaporized="">
        <emissions CO_abs="576.573206" CO2_abs="49796.307610" HC_abs="14.773973" PMx_abs="5.423133" NOx_abs="101.900728" fuel_abs="19.853026"/>
    </tripinfo>
    <tripinfo id="141415_141415_415" depart="27003.00" departLane="150039002#2_0" departPos="5.10" departSpeed="0.00" departDelay="3.00" arrival="27025.00" arrivalLane="150039002#2_0" arrivalPos="249.40" arrivalSpeed="13.12" duration="22.00" routeLength="244.30" waitSteps="0" rerouteNo="0" devices="tripinfo_141415_141415_415 hbefa_141415_141415_415" vType="DEFAULT_VEHTYPE" vaporized="">
        <emissions CO_abs="523.337241" CO2_abs="53618.092159" HC_abs="14.958509" PMx_abs="5.339132" NOx_abs="106.230777" fuel_abs="21.376716"/>
    </tripinfo>
    <tripinfo id="225541_225541_450" depart="27000.00" departLane="9207803_0" departPos="5.10" departSpeed="0.00" departDelay="0.00" arrival="27025.00" arrivalLane="154755073#3_0" arrivalPos="102.52" arrivalSpeed="8.30" duration="25.00" routeLength="166.65" waitSteps="0" rerouteNo="0" devices="tripinfo_225541_225541_450 hbefa_225541_225541_450" vType="DEFAULT_VEHTYPE" vaporized="">
        <emissions CO_abs="387.786356" CO2_abs="35426.932611" HC_abs="11.146661" PMx_abs="3.656802" NOx_abs="70.137620" fuel_abs="14.124168"/>
    </tripinfo>
    <tripinfo id="105435_105435_398" depart="27003.00" departLane="145474196#1_0" departPos="5.10" departSpeed="0.00" departDelay="3.00" arrival="27026.00" arrivalLane="145474196#1_0" arrivalPos="94.12" arrivalSpeed="6.19" duration="23.00" routeLength="89.02" waitSteps="5" rerouteNo="0" devices="tripinfo_105435_105435_398 hbefa_105435_105435_398" vType="DEFAULT_VEHTYPE" vaporized="">
        <emissions CO_abs="564.504542" CO2_abs="40587.963408" HC_abs="14.205476" PMx_abs="4.620365" NOx_abs="83.824727" fuel_abs="16.181791"/>
    </tripinfo>
    <tripinfo id="75851_75851_386" depart="27002.00" departLane="28542995#2_0" departPos="5.10" departSpeed="0.00" departDelay="2.00" arrival="27027.00" arrivalLane="23493181#0_0" arrivalPos="88.20" arrivalSpeed="7.23" duration="25.00" routeLength="144.84" waitSteps="0" rerouteNo="0" devices="tripinfo_75851_75851_386 hbefa_75851_75851_386" vType="DEFAULT_VEHTYPE" vaporized="">
        <emissions CO_abs="514.273941" CO2_abs="42285.058316" HC_abs="13.917551" PMx_abs="4.548191" NOx_abs="85.194431" fuel_abs="16.858396"/>
    </tripinfo>
    <tripinfo id="136596_136596_411" depart="27003.00" departLane="131651824_0" departPos="5.10" departSpeed="0.00" departDelay="3.00" arrival="27027.00" arrivalLane="4400211#0_0" arrivalPos="197.56" arrivalSpeed="12.15" duration="24.00" routeLength="253.49" waitSteps="0" rerouteNo="0" devices="tripinfo_136596_136596_411 hbefa_136596_136596_411" vType="DEFAULT_VEHTYPE" vaporized="">
        <emissions CO_abs="737.294804" CO2_abs="61970.119032" HC_abs="18.694080" PMx_abs="6.751287" NOx_abs="127.150383" fuel_abs="24.706536"/>
    </tripinfo>
    <tripinfo id="220353_220353_447" depart="27001.00" departLane="-165515969#3_0" departPos="5.10" departSpeed="0.00" departDelay="0.00" arrival="27027.00" arrivalLane="-165511531#0_0" arrivalPos="53.73" arrivalSpeed="12.90" duration="26.00" routeLength="345.81" waitSteps="0" rerouteNo="1" devices="tripinfo_220353_220353_447 hbefa_220353_220353_447" vType="DEFAULT_VEHTYPE" vaporized="">
        <emissions CO_abs="2435.488539" CO2_abs="139927.782003" HC_abs="48.060820" PMx_abs="19.201026" NOx_abs="316.081151" fuel_abs="55.787080"/>
    </tripinfo>
    <tripinfo id="134089_134089_411" depart="27000.00" departLane="23800191#2_0" departPos="5.10" departSpeed="0.00" departDelay="0.00" arrival="27028.00" arrivalLane="4400211#0_0" arrivalPos="197.56" arrivalSpeed="12.45" duration="28.00" routeLength="291.90" waitSteps="0" rerouteNo="0" devices="tripinfo_134089_134089_411 hbefa_134089_134089_411" vType="DEFAULT_VEHTYPE" vaporized="">
        <emissions CO_abs="831.346186" CO2_abs="71752.790135" HC_abs="21.395469" PMx_abs="7.784068" NOx_abs="146.564149" fuel_abs="28.606737"/>
    </tripinfo>
    <tripinfo id="162999_162999_422" depart="27000.00" departLane="150031230#2_0" departPos="5.10" departSpeed="0.00" departDelay="0.00" arrival="27029.00" arrivalLane="129833341#0_1" arrivalPos="129.85" arrivalSpeed="13.29" duration="29.00" routeLength="303.50" waitSteps="0" rerouteNo="0" devices="tripinfo_162999_162999_422 hbefa_162999_162999_422" vType="DEFAULT_VEHTYPE" vaporized="">
        <emissions CO_abs="907.469553" CO2_abs="78566.555716" HC_abs="23.210116" PMx_abs="8.783532" NOx_abs="161.038674" fuel_abs="31.323282"/>
    </tripinfo>
    <tripinfo id="84113_84113_390" depart="27000.00" departLane="150031205#0_0" departPos="5.10" departSpeed="0.00" departDelay="0.00" arrival="27029.00" arrivalLane="23471158#10_0" arrivalPos="144.68" arrivalSpeed="27.52" duration="29.00" routeLength="462.65" waitSteps="1" rerouteNo="0" devices="tripinfo_84113_84113_390 hbefa_84113_84113_390" vType="DEFAULT_VEHTYPE" vaporized="">
        <emissions CO_abs="3046.152412" CO2_abs="172392.037976" HC_abs="58.709094" PMx_abs="22.604717" NOx_abs="388.561200" fuel_abs="68.730137"/>
    </tripinfo>
    <tripinfo id="118681_118681_405" depart="27000.00" departLane="23471158#6_0" departPos="5.10" departSpeed="0.00" departDelay="0.00" arrival="27030.00" arrivalLane="32856811#2_0" arrivalPos="144.91" arrivalSpeed="13.84" duration="30.00" routeLength="453.34" waitSteps="0" rerouteNo="0" devices="tripinfo_118681_118681_405 hbefa_118681_118681_405" vType="DEFAULT_VEHTYPE" vaporized="">
        <emissions CO_abs="2167.008002" CO2_abs="137216.812536" HC_abs="44.197029" PMx_abs="16.731643" NOx_abs="300.475896" fuel_abs="54.706300"/>
    </tripinfo>
    <tripinfo id="188835_188835_434" depart="27006.00" departLane="187965762#1_0" departPos="5.10" departSpeed="0.00" departDelay="6.00" arrival="27030.00" arrivalLane="187965762#2_0" arrivalPos="85.18" arrivalSpeed="8.07" duration="24.00" routeLength="168.92" waitSteps="0" rerouteNo="0" devices="tripinfo_188835_188835_434 hbefa_188835_188835_434" vType="DEFAULT_VEHTYPE" vaporized="">
        <emissions CO_abs="244.041651" CO2_abs="29943.558024" HC_abs="8.791309" PMx_abs="2.473338" NOx_abs="55.663099" fuel_abs="11.938033"/>
    </tripinfo>
    <tripinfo id="187318_187318_433" depart="27013.00" departLane="-83823403#2_0" departPos="5.10" departSpeed="0.00" departDelay="0.00" arrival="27031.00" arrivalLane="-83823403#2_0" arrivalPos="184.87" arrivalSpeed="10.03" duration="18.00" routeLength="179.77" waitSteps="0" rerouteNo="0" devices="tripinfo_187318_187318_433 hbefa_187318_187318_433" vType="DEFAULT_VEHTYPE" vaporized="">
        <emissions CO_abs="571.619176" CO2_abs="43856.818710" HC_abs="13.900943" PMx_abs="5.036228" NOx_abs="91.471774" fuel_abs="17.485037"/>
    </tripinfo>
    <tripinfo id="122617_122617_406" depart="27000.00" departLane="131651824_0" departPos="5.10" departSpeed="0.00" departDelay="0.00" arrival="27031.00" arrivalLane="130875842_0" arrivalPos="81.21" arrivalSpeed="12.87" duration="31.00" routeLength="334.70" waitSteps="0" rerouteNo="0" devices="tripinfo_122617_122617_406 hbefa_122617_122617_406" vType="DEFAULT_VEHTYPE" vaporized="">
        <emissions CO_abs="930.363505" CO2_abs="78002.465223" HC_abs="23.416749" PMx_abs="8.708035" NOx_abs="160.629690" fuel_abs="31.098387"/>
    </tripinfo>
    <tripinfo id="104726_104726_398" depart="27000.00" departLane="23471158#5_0" departPos="5.10" departSpeed="0.00" departDelay="0.00" arrival="27032.00" arrivalLane="32856811#2_0" arrivalPos="144.91" arrivalSpeed="12.61" duration="32.00" routeLength="464.21" waitSteps="0" rerouteNo="0" devices="tripinfo_104726_104726_398 hbefa_104726_104726_398" vType="DEFAULT_VEHTYPE" vaporized="">
        <emissions CO_abs="1936.924987" CO2_abs="128864.354272" HC_abs="41.019142" PMx_abs="15.092050" NOx_abs="278.160324" fuel_abs="51.376290"/>
    </tripinfo>
    <tripinfo id="212444_212444_443" depart="27003.00" departLane="166155712#0_0" departPos="5.10" departSpeed="0.00" departDelay="0.00" arrival="27033.00" arrivalLane="33469672_0" arrivalPos="142.78" arrivalSpeed="13.55" duration="30.00" routeLength="317.06" waitSteps="0" rerouteNo="0" devices="tripinfo_212444_212444_443 hbefa_212444_212444_443" vType="DEFAULT_VEHTYPE" vaporized="">
        <emissions CO_abs="913.433866" CO2_abs="73265.429602" HC_abs="22.508846" PMx_abs="8.216286" NOx_abs="151.854676" fuel_abs="29.209801"/>
    </tripinfo>
    <tripinfo id="103310_103310_397" depart="27000.00" departLane="83703645_0" departPos="5.10" departSpeed="0.00" departDelay="0.00" arrival="27034.00" arrivalLane="23493177#0_0" arrivalPos="166.52" arrivalSpeed="7.24" duration="34.00" routeLength="279.85" waitSteps="0" rerouteNo="0" devices="tripinfo_103310_103310_397 hbefa_103310_103310_397" vType="DEFAULT_VEHTYPE" vaporized="">
        <emissions CO_abs="612.669261" CO2_abs="60603.535661" HC_abs="18.025464" PMx_abs="5.998260" NOx_abs="118.999943" fuel_abs="24.161694"/>
    </tripinfo>
    <tripinfo id="208001_208001_441" depart="27001.00" departLane="-83823403#2_0" departPos="5.10" departSpeed="0.00" departDelay="0.00" arrival="27034.00" arrivalLane="23015529#0_0" arrivalPos="184.87" arrivalSpeed="12.76" duration="33.00" routeLength="364.64" waitSteps="0" rerouteNo="0" devices="tripinfo_208001_208001_441 hbefa_208001_208001_441" vType="DEFAULT_VEHTYPE" vaporized="">
        <emissions CO_abs="1039.721481" CO2_abs="85967.952755" HC_abs="25.741871" PMx_abs="9.687249" NOx_abs="177.881168" fuel_abs="34.274106"/>
    </tripinfo>
    <tripinfo id="217202_217202_446" depart="27007.00" departLane="-83823403#2_0" departPos="5.10" departSpeed="0.00" departDelay="0.00" arrival="27036.00" arrivalLane="23015533_0" arrivalPos="110.79" arrivalSpeed="13.42" duration="29.00" routeLength="290.56" waitSteps="0" rerouteNo="0" devices="tripinfo_217202_217202_446 hbefa_217202_217202_446" vType="DEFAULT_VEHTYPE" vaporized="">
        <emissions CO_abs="902.850883" CO2_abs="75645.407569" HC_abs="22.747746" PMx_abs="8.588752" NOx_abs="155.958850" fuel_abs="30.158664"/>
    </tripinfo>
    <tripinfo id="105964_105964_399" depart="27007.00" departLane="145474196#1_0" departPos="5.10" departSpeed="0.00" departDelay="7.00" arrival="27037.00" arrivalLane="145474196#1_0" arrivalPos="94.12" arrivalSpeed="6.52" duration="30.00" routeLength="89.02" waitSteps="13" rerouteNo="0" devices="tripinfo_105964_105964_399 hbefa_105964_105964_399" vType="DEFAULT_VEHTYPE" vaporized="">
        <emissions CO_abs="635.681060" CO2_abs="44822.294608" HC_abs="16.968083" PMx_abs="5.007118" NOx_abs="90.779137" fuel_abs="17.869952"/>
    </tripinfo>
    <tripinfo id="123467_123467_406" depart="27008.00" departLane="23471158#6_0" departPos="5.10" departSpeed="0.00" departDelay="8.00" arrival="27038.00" arrivalLane="32856811#2_0" arrivalPos="144.91" arrivalSpeed="13.01" duration="30.00" routeLength="453.34" waitSteps="0" rerouteNo="0" devices="tripinfo_123467_123467_406 hbefa_123467_123467_406" vType="DEFAULT_VEHTYPE" vaporized="">
        <emissions CO_abs="2213.093081" CO2_abs="136473.670643" HC_abs="44.698139" PMx_abs="17.440554" NOx_abs="301.966854" fuel_abs="54.410007"/>
    </tripinfo>
    <tripinfo id="238887_238887_451" depart="27010.00" departLane="-83823403#2_0" departPos="5.10" departSpeed="0.00" departDelay="0.00" arrival="27038.00" arrivalLane="23015533_0" arrivalPos="110.79" arrivalSpeed="13.31" duration="28.00" routeLength="290.56" waitSteps="0" rerouteNo="0" devices="tripinfo_238887_238887_451 hbefa_238887_238887_451" vType="DEFAULT_VEHTYPE" vaporized="">
        <emissions CO_abs="943.628573" CO2_abs="76787.200166" HC_abs="23.366949" PMx_abs="8.624333" NOx_abs="158.914617" fuel_abs="30.613878"/>
    </tripinfo>
    <tripinfo id="154499_154499_420" depart="27000.00" departLane="28542995#0_0" departPos="5.10" departSpeed="0.00" departDelay="0.00" arrival="27039.00" arrivalLane="23493260#4_1" arrivalPos="126.60" arrivalSpeed="13.82" duration="39.00" routeLength="435.19" waitSteps="0" rerouteNo="0" devices="tripinfo_154499_154499_420 hbefa_154499_154499_420" vType="DEFAULT_VEHTYPE" vaporized="">
        <emissions CO_abs="1068.588216" CO2_abs="96321.850625" HC_abs="28.339871" PMx_abs="9.838699" NOx_abs="194.345821" fuel_abs="38.402047"/>
    </tripinfo>
    <tripinfo id="218769_218769_446" depart="27003.00" departLane="-55940134_0" departPos="5.10" departSpeed="0.00" departDelay="3.00" arrival="27040.00" arrivalLane="-144935692#1_1" arrivalPos="103.61" arrivalSpeed="13.22" duration="37.00" routeLength="447.77" waitSteps="0" rerouteNo="0" devices="tripinfo_218769_218769_446 hbefa_218769_218769_446" vType="DEFAULT_VEHTYPE" vaporized="">
        <emissions CO_abs="590.626601" CO2_abs="72448.129922" HC_abs="18.759954" PMx_abs="6.717322" NOx_abs="140.026581" fuel_abs="28.883971"/>
    </tripinfo>
    <tripinfo id="171544_171544_426" depart="27000.00" departLane="187965762#1_0" departPos="5.10" departSpeed="0.00" departDelay="0.00" arrival="27040.00" arrivalLane="23800191#0_0" arrivalPos="143.94" arrivalSpeed="13.34" duration="40.00" routeLength="368.51" waitSteps="0" rerouteNo="0" devices="tripinfo_171544_171544_426 hbefa_171544_171544_426" vType="DEFAULT_VEHTYPE" vaporized="">
        <emissions CO_abs="489.917574" CO2_abs="62666.818592" HC_abs="16.878327" PMx_abs="5.431964" NOx_abs="118.546793" fuel_abs="24.984302"/>
    </tripinfo>
    <tripinfo id="138122_138122_412" depart="27009.00" departLane="131651824_0" departPos="5.10" departSpeed="0.00" departDelay="9.00" arrival="27040.00" arrivalLane="130875842_0" arrivalPos="81.21" arrivalSpeed="13.65" duration="31.00" routeLength="334.70" waitSteps="0" rerouteNo="0" devices="tripinfo_138122_138122_412 hbefa_138122_138122_412" vType="DEFAULT_VEHTYPE" vaporized="">
        <emissions CO_abs="960.300783" CO2_abs="77271.529605" HC_abs="23.603137" PMx_abs="8.790122" NOx_abs="160.472246" fuel_abs="30.806973"/>
    </tripinfo>
    <tripinfo id="244420_244420_453" depart="27015.00" departLane="-165515969#3_0" departPos="5.10" departSpeed="0.00" departDelay="0.00" arrival="27041.00" arrivalLane="-165511531#0_0" arrivalPos="53.73" arrivalSpeed="13.40" duration="26.00" routeLength="345.81" waitSteps="0" rerouteNo="1" devices="tripinfo_244420_244420_453 hbefa_244420_244420_453" vType="DEFAULT_VEHTYPE" vaporized="">
        <emissions CO_abs="2314.588448" CO2_abs="137235.391297" HC_abs="46.393539" PMx_abs="18.184161" NOx_abs="306.769289" fuel_abs="54.713671"/>
    </tripinfo>
    <tripinfo id="184987_184987_431" depart="27000.00" departLane="-186463490#0_0" departPos="5.10" departSpeed="0.00" departDelay="0.00" arrival="27042.00" arrivalLane="-144935692#1_1" arrivalPos="103.61" arrivalSpeed="13.54" duration="42.00" routeLength="500.46" waitSteps="0" rerouteNo="0" devices="tripinfo_184987_184987_431 hbefa_184987_184987_431" vType="DEFAULT_VEHTYPE" vaporized="">
        <emissions CO_abs="581.254020" CO2_abs="83010.903542" HC_abs="20.810782" PMx_abs="6.712001" NOx_abs="155.860787" fuel_abs="33.095190"/>
    </tripinfo>
    <tripinfo id="224931_224931_449" depart="27026.00" departLane="-28523795_0" departPos="5.10" departSpeed="0.00" departDelay="0.00" arrival="27043.00" arrivalLane="-28523795_0" arrivalPos="192.02" arrivalSpeed="12.67" duration="17.00" routeLength="186.92" waitSteps="0" rerouteNo="0" devices="tripinfo_224931_224931_449 hbefa_224931_224931_449" vType="DEFAULT_VEHTYPE" vaporized="">
        <emissions CO_abs="608.781982" CO2_abs="46999.570545" HC_abs="14.580737" PMx_abs="5.458635" NOx_abs="98.476990" fuel_abs="18.738007"/>
    </tripinfo>
    <tripinfo id="211099_211099_442" depart="27013.00" departLane="166155712#0_0" departPos="5.10" departSpeed="0.00" departDelay="0.00" arrival="27043.00" arrivalLane="33469672_0" arrivalPos="142.78" arrivalSpeed="12.84" duration="30.00" routeLength="317.06" waitSteps="0" rerouteNo="0" devices="tripinfo_211099_211099_442 hbefa_211099_211099_442" vType="DEFAULT_VEHTYPE" vaporized="">
        <emissions CO_abs="850.779356" CO2_abs="70363.823367" HC_abs="21.292035" PMx_abs="7.927687" NOx_abs="145.318258" fuel_abs="28.052977"/>
    </tripinfo>
    <tripinfo id="212327_212327_442" depart="27014.00" departLane="198147972_0" departPos="5.10" departSpeed="0.00" departDelay="0.00" arrival="27043.00" arrivalLane="4353628#1_0" arrivalPos="68.95" arrivalSpeed="12.82" duration="29.00" routeLength="339.08" waitSteps="0" rerouteNo="0" devices="tripinfo_212327_212327_442 hbefa_212327_212327_442" vType="DEFAULT_VEHTYPE" vaporized="">
        <emissions CO_abs="583.698119" CO2_abs="63806.031110" HC_abs="17.285813" PMx_abs="6.023423" NOx_abs="124.996682" fuel_abs="25.438494"/>
    </tripinfo>
    <tripinfo id="101376_101376_396" depart="27003.00" departLane="23471158#0_0" departPos="5.10" departSpeed="0.00" departDelay="3.00" arrival="27044.00" arrivalLane="32856811#2_0" arrivalPos="144.91" arrivalSpeed="13.72" duration="41.00" routeLength="664.02" waitSteps="0" rerouteNo="0" devices="tripinfo_101376_101376_396 hbefa_101376_101376_396" vType="DEFAULT_VEHTYPE" vaporized="">
        <emissions CO_abs="2916.261275" CO2_abs="180114.724109" HC_abs="59.108449" PMx_abs="22.738944" NOx_abs="398.044951" fuel_abs="71.809029"/>
    </tripinfo>
    <tripinfo id="111586_111586_401" depart="27003.00" departLane="36454807#3_0" departPos="5.10" departSpeed="0.00" departDelay="3.00" arrival="27044.00" arrivalLane="23471158#9_0" arrivalPos="213.75" arrivalSpeed="26.96" duration="41.00" routeLength="393.11" waitSteps="11" rerouteNo="1" devices="tripinfo_111586_111586_401 hbefa_111586_111586_401" vType="DEFAULT_VEHTYPE" vaporized="">
        <emissions CO_abs="2679.936252" CO2_abs="155410.044803" HC_abs="54.777530" PMx_abs="20.558217" NOx_abs="345.875190" fuel_abs="61.959631"/>
    </tripinfo>
    <tripinfo id="197472_197472_436" depart="27006.00" departLane="23800191#2_0" departPos="5.10" departSpeed="0.00" departDelay="6.00" arrival="27044.00" arrivalLane="130875842_0" arrivalPos="81.21" arrivalSpeed="12.86" duration="38.00" routeLength="373.11" waitSteps="0" rerouteNo="0" devices="tripinfo_197472_197472_436 hbefa_197472_197472_436" vType="DEFAULT_VEHTYPE" vaporized="">
        <emissions CO_abs="1097.074852" CO2_abs="89690.731469" HC_abs="27.425616" PMx_abs="10.056868" NOx_abs="185.220423" fuel_abs="35.758316"/>
    </tripinfo>
    <tripinfo id="103637_103637_397" depart="27000.00" departLane="145474196#1_0" departPos="5.10" departSpeed="0.00" departDelay="0.00" arrival="27045.00" arrivalLane="150039002#2_1" arrivalPos="249.40" arrivalSpeed="12.87" duration="45.00" routeLength="361.28" waitSteps="8" rerouteNo="0" devices="tripinfo_103637_103637_397 hbefa_103637_103637_397" vType="DEFAULT_VEHTYPE" vaporized="">
        <emissions CO_abs="973.387762" CO2_abs="88296.707281" HC_abs="26.919697" PMx_abs="8.955989" NOx_abs="176.183689" fuel_abs="35.202543"/>
    </tripinfo>
    <tripinfo id="245947_245947_454" depart="27016.00" departLane="-83823403#2_0" departPos="5.10" departSpeed="0.00" departDelay="0.00" arrival="27045.00" arrivalLane="23015533_0" arrivalPos="110.79" arrivalSpeed="12.84" duration="29.00" routeLength="290.56" waitSteps="0" rerouteNo="0" devices="tripinfo_245947_245947_454 hbefa_245947_245947_454" vType="DEFAULT_VEHTYPE" vaporized="">
        <emissions CO_abs="974.901037" CO2_abs="76267.138949" HC_abs="23.590008" PMx_abs="8.711107" NOx_abs="159.121949" fuel_abs="30.406536"/>
    </tripinfo>
    <tripinfo id="244003_244003_453" depart="27029.00" departLane="-28523795_0" departPos="5.10" departSpeed="0.00" departDelay="0.00" arrival="27046.00" arrivalLane="-28523795_0" arrivalPos="192.02" arrivalSpeed="13.63" duration="17.00" routeLength="186.92" waitSteps="0" rerouteNo="0" devices="tripinfo_244003_244003_453 hbefa_244003_244003_453" vType="DEFAULT_VEHTYPE" vaporized="">
        <emissions CO_abs="457.858937" CO2_abs="42696.428246" HC_abs="12.398364" PMx_abs="4.362792" NOx_abs="85.738614" fuel_abs="17.022413"/>
    </tripinfo>
    <tripinfo id="140107_140107_414" depart="27000.00" departLane="154755117_0" departPos="5.10" departSpeed="0.00" departDelay="0.00" arrival="27046.00" arrivalLane="23800191#0_0" arrivalPos="143.94" arrivalSpeed="13.28" duration="46.00" routeLength="212.88" waitSteps="19" rerouteNo="0" devices="tripinfo_140107_140107_414 hbefa_140107_140107_414" vType="DEFAULT_VEHTYPE" vaporized="">
        <emissions CO_abs="755.346473" CO2_abs="66630.104440" HC_abs="23.384044" PMx_abs="6.361804" NOx_abs="128.004625" fuel_abs="26.564394"/>
    </tripinfo>
    <tripinfo id="95606_95606_394" depart="27000.00" departLane="8225148_0" departPos="5.10" departSpeed="0.00" departDelay="0.00" arrival="27047.00" arrivalLane="145261451_0" arrivalPos="86.92" arrivalSpeed="13.27" duration="47.00" routeLength="515.94" waitSteps="0" rerouteNo="0" devices="tripinfo_95606_95606_394 hbefa_95606_95606_394" vType="DEFAULT_VEHTYPE" vaporized="">
        <emissions CO_abs="1337.020755" CO2_abs="115148.575381" HC_abs="34.099495" PMx_abs="12.461405" NOx_abs="235.793537" fuel_abs="45.907973"/>
    </tripinfo>
    <tripinfo id="227630_227630_450" depart="27017.00" departLane="166155712#0_0" departPos="5.10" departSpeed="0.00" departDelay="0.00" arrival="27047.00" arrivalLane="33469672_0" arrivalPos="142.78" arrivalSpeed="13.47" duration="30.00" routeLength="317.06" waitSteps="0" rerouteNo="0" devices="tripinfo_227630_227630_450 hbefa_227630_227630_450" vType="DEFAULT_VEHTYPE" vaporized="">
        <emissions CO_abs="837.172455" CO2_abs="72857.672690" HC_abs="21.616812" PMx_abs="7.802262" NOx_abs="148.603868" fuel_abs="29.047238"/>
    </tripinfo>
    <tripinfo id="221885_221885_448" depart="27017.00" departLane="-175607927#0_0" departPos="5.10" departSpeed="0.00" departDelay="0.00" arrival="27047.00" arrivalLane="-29214406_0" arrivalPos="179.38" arrivalSpeed="13.07" duration="30.00" routeLength="317.06" waitSteps="0" rerouteNo="0" devices="tripinfo_221885_221885_448 hbefa_221885_221885_448" vType="DEFAULT_VEHTYPE" vaporized="">