<?xml version="1.0" encoding="UTF-8"?>

<!-- generated on Tue Apr 15 17:50:25 2014 by SUMO sumo Version 0.19.0
<?xml version="1.0" encoding="UTF-8"?>

<configuration xmlns:xsi="http://www.w3.org/2001/XMLSchema-instance" xsi:noNamespaceSchemaLocation="http://sumo-sim.org/xsd/sumoConfiguration.xsd">

    <input>
        <net-file value="data/map.net.xml"/>
        <route-files value="data/map.rou.xml"/>
    </input>

    <output>
        <tripinfo-output value="data/maptripinfoLocal.out.xml"/>
        <save-state.prefix value="data/state"/>
    </output>

    <time>
        <begin value="27000"/>
        <end value="27900"/>
    </time>

    <processing>
        <route-steps value="200"/>
        <scale value="0.8"/>
        <time-to-teleport value="300"/>
        <lanechange.allow-swap value="true"/>
    </processing>

    <report>
        <verbose value="true"/>
        <no-warnings value="true"/>
        <no-step-log value="true"/>
    </report>

    <emissions>
        <device.hbefa.probability value="1"/>
    </emissions>

    <traci_server>
        <remote-port value="8814"/>
    </traci_server>

</configuration>
-->

<tripinfos>
    <tripinfo id="136022_136022_411" depart="27003.00" departLane="23800191#2_0" departPos="5.10" departSpeed="0.00" departDelay="3.00" arrival="27009.00" arrivalLane="23800191#2_0" arrivalPos="38.41" arrivalSpeed="12.11" duration="6.00" routeLength="33.31" waitSteps="0" rerouteNo="0" devices="tripinfo_136022_136022_411 hbefa_136022_136022_411" vType="DEFAULT_VEHTYPE" vaporized="">
        <emissions CO_abs="383.160706" CO2_abs="25339.093353" HC_abs="8.670265" PMx_abs="3.236250" NOx_abs="54.620576" fuel_abs="10.102303"/>
    </tripinfo>
    <tripinfo id="182087_182087_431" depart="27000.00" departLane="4380937#2_0" departPos="5.10" departSpeed="0.00" departDelay="0.00" arrival="27011.00" arrivalLane="4380937#3_0" arrivalPos="72.76" arrivalSpeed="13.27" duration="11.00" routeLength="103.50" waitSteps="0" rerouteNo="1" devices="tripinfo_182087_182087_431 hbefa_182087_182087_431" vType="DEFAULT_VEHTYPE" vaporized="">
        <emissions CO_abs="531.286763" CO2_abs="36186.787974" HC_abs="11.917421" PMx_abs="4.669175" NOx_abs="78.123159" fuel_abs="14.427114"/>
    </tripinfo>
    <tripinfo id="72912_72912_384" depart="27003.00" departLane="9207803_0" departPos="5.10" departSpeed="0.00" departDelay="3.00" arrival="27014.00" arrivalLane="9207803_0" arrivalPos="69.23" arrivalSpeed="7.51" duration="11.00" routeLength="64.13" waitSteps="0" rerouteNo="0" devices="tripinfo_72912_72912_384 hbefa_72912_72912_384" vType="DEFAULT_VEHTYPE" vaporized="">
        <emissions CO_abs="327.084452" CO2_abs="23539.014202" HC_abs="7.936654" PMx_abs="2.896902" NOx_abs="49.451988" fuel_abs="9.384639"/>
    </tripinfo>
    <tripinfo id="251564_251564_457" depart="27002.00" departLane="51113317_0" departPos="5.10" departSpeed="0.00" departDelay="0.00" arrival="27014.00" arrivalLane="51113317_0" arrivalPos="125.08" arrivalSpeed="13.10" duration="12.00" routeLength="119.98" waitSteps="0" rerouteNo="0" devices="tripinfo_251564_251564_457 hbefa_251564_251564_457" vType="DEFAULT_VEHTYPE" vaporized="">
        <emissions CO_abs="486.131635" CO2_abs="39387.839971" HC_abs="12.046325" PMx_abs="4.477191" NOx_abs="81.624284" fuel_abs="15.703327"/>
    </tripinfo>
    <tripinfo id="105435_105435_398" depart="27003.00" departLane="145474196#1_0" departPos="5.10" departSpeed="0.00" departDelay="3.00" arrival="27015.00" arrivalLane="145474196#1_0" arrivalPos="94.12" arrivalSpeed="11.51" duration="12.00" routeLength="89.02" waitSteps="0" rerouteNo="0" devices="tripinfo_105435_105435_398 hbefa_105435_105435_398" vType="DEFAULT_VEHTYPE" vaporized="">
        <emissions CO_abs="621.268125" CO2_abs="43061.868950" HC_abs="14.321635" PMx_abs="5.286588" NOx_abs="91.866958" fuel_abs="17.168100"/>
    </tripinfo>
    <tripinfo id="92380_92380_392" depart="27000.00" departLane="-154755073#3_0" departPos="5.10" departSpeed="0.00" departDelay="0.00" arrival="27015.00" arrivalLane="-154755073#3_0" arrivalPos="102.52" arrivalSpeed="8.21" duration="15.00" routeLength="97.42" waitSteps="0" rerouteNo="0" devices="tripinfo_92380_92380_392 hbefa_92380_92380_392" vType="DEFAULT_VEHTYPE" vaporized="">
        <emissions CO_abs="159.642380" CO2_abs="23853.367556" HC_abs="6.822680" PMx_abs="1.853483" NOx_abs="42.926135" fuel_abs="9.509969"/>
    </tripinfo>
    <tripinfo id="84049_84049_390" depart="27005.00" departLane="9207803_0" departPos="5.10" departSpeed="0.00" departDelay="5.00" arrival="27016.00" arrivalLane="9207803_0" arrivalPos="69.23" arrivalSpeed="8.06" duration="11.00" routeLength="64.13" waitSteps="1" rerouteNo="0" devices="tripinfo_84049_84049_390 hbefa_84049_84049_390" vType="DEFAULT_VEHTYPE" vaporized="">
        <emissions CO_abs="163.824045" CO2_abs="18514.001359" HC_abs="5.778836" PMx_abs="1.613600" NOx_abs="34.534482" fuel_abs="7.381245"/>
    </tripinfo>
    <tripinfo id="232041_232041_451" depart="27002.00" departLane="28523795_0" departPos="5.10" departSpeed="0.00" departDelay="0.00" arrival="27019.00" arrivalLane="28523795_0" arrivalPos="192.02" arrivalSpeed="13.45" duration="17.00" routeLength="186.92" waitSteps="0" rerouteNo="0" devices="tripinfo_232041_232041_451 hbefa_232041_232041_451" vType="DEFAULT_VEHTYPE" vaporized="">
        <emissions CO_abs="563.834664" CO2_abs="44768.744619" HC_abs="13.813793" PMx_abs="5.030477" NOx_abs="92.937419" fuel_abs="17.848611"/>
    </tripinfo>
    <tripinfo id="135880_135880_411" depart="27000.00" departLane="150039002#2_0" departPos="5.10" departSpeed="0.00" departDelay="0.00" arrival="27022.00" arrivalLane="150039002#2_0" arrivalPos="249.40" arrivalSpeed="13.41" duration="22.00" routeLength="244.30" waitSteps="0" rerouteNo="0" devices="tripinfo_135880_135880_411 hbefa_135880_135880_411" vType="DEFAULT_VEHTYPE" vaporized="">
        <emissions CO_abs="694.150883" CO2_abs="55460.904272" HC_abs="16.962949" PMx_abs="6.117405" NOx_abs="114.993211" fuel_abs="22.111412"/>
    </tripinfo>
    <tripinfo id="75851_75851_386" depart="27002.00" departLane="28542995#2_0" departPos="5.10" departSpeed="0.00" departDelay="2.00" arrival="27022.00" arrivalLane="23493181#0_0" arrivalPos="88.20" arrivalSpeed="10.92" duration="20.00" routeLength="144.84" waitSteps="0" rerouteNo="0" devices="tripinfo_75851_75851_386 hbefa_75851_75851_386" vType="DEFAULT_VEHTYPE" vaporized="">
        <emissions CO_abs="758.782304" CO2_abs="54122.090311" HC_abs="17.912205" PMx_abs="6.618389" NOx_abs="114.595871" fuel_abs="21.577640"/>
    </tripinfo>
    <tripinfo id="219187_219187_446" depart="27000.00" departLane="144935690_0" departPos="5.10" departSpeed="0.00" departDelay="0.00" arrival="27022.00" arrivalLane="25997632_0" arrivalPos="136.14" arrivalSpeed="12.94" duration="22.00" routeLength="241.37" waitSteps="0" rerouteNo="0" devices="tripinfo_219187_219187_446 hbefa_219187_219187_446" vType="DEFAULT_VEHTYPE" vaporized="">
        <emissions CO_abs="686.741954" CO2_abs="53520.919458" HC_abs="16.659661" PMx_abs="6.122048" NOx_abs="111.616505" fuel_abs="21.337968"/>
    </tripinfo>
    <tripinfo id="206737_206737_440" depart="27007.00" departLane="-29206900_0" departPos="5.10" departSpeed="0.00" departDelay="0.00" arrival="27022.00" arrivalLane="29207110_0" arrivalPos="28.94" arrivalSpeed="12.47" duration="15.00" routeLength="103.46" waitSteps="0" rerouteNo="0" devices="tripinfo_206737_206737_440 hbefa_206737_206737_440" vType="DEFAULT_VEHTYPE" vaporized="">
        <emissions CO_abs="537.799695" CO2_abs="39849.216724" HC_abs="13.124977" PMx_abs="4.702092" NOx_abs="83.301781" fuel_abs="15.887264"/>
    </tripinfo>
    <tripinfo id="110327_110327_401" depart="27000.00" departLane="53212166#0_0" departPos="5.10" departSpeed="0.00" departDelay="0.00" arrival="27023.00" arrivalLane="28542995#2_2" arrivalPos="61.74" arrivalSpeed="12.98" duration="23.00" routeLength="231.82" waitSteps="0" rerouteNo="0" devices="tripinfo_110327_110327_401 hbefa_110327_110327_401" vType="DEFAULT_VEHTYPE" vaporized="">
        <emissions CO_abs="518.806173" CO2_abs="50466.398331" HC_abs="14.541564" PMx_abs="5.045536" NOx_abs="100.402172" fuel_abs="20.120180"/>
    </tripinfo>
    <tripinfo id="225242_225242_449" depart="27000.00" departLane="154755124_0" departPos="5.10" departSpeed="0.00" departDelay="0.00" arrival="27024.00" arrivalLane="4380937#3_1" arrivalPos="72.76" arrivalSpeed="12.94" duration="24.00" routeLength="103.50" waitSteps="0" rerouteNo="1" devices="tripinfo_225242_225242_449 hbefa_225242_225242_449" vType="DEFAULT_VEHTYPE" vaporized="">
        <emissions CO_abs="624.471349" CO2_abs="51002.725305" HC_abs="16.049052" PMx_abs="5.705622" NOx_abs="104.522591" fuel_abs="20.333999"/>
    </tripinfo>
    <tripinfo id="141415_141415_415" depart="27003.00" departLane="150039002#2_0" departPos="5.10" departSpeed="0.00" departDelay="3.00" arrival="27025.00" arrivalLane="150039002#2_0" arrivalPos="249.40" arrivalSpeed="12.60" duration="22.00" routeLength="244.30" waitSteps="0" rerouteNo="0" devices="tripinfo_141415_141415_415 hbefa_141415_141415_415" vType="DEFAULT_VEHTYPE" vaporized="">
        <emissions CO_abs="543.496607" CO2_abs="54311.852955" HC_abs="15.226859" PMx_abs="5.457642" NOx_abs="107.980221" fuel_abs="21.653308"/>
    </tripinfo>
    <tripinfo id="225541_225541_450" depart="27000.00" departLane="9207803_0" departPos="5.10" departSpeed="0.00" departDelay="0.00" arrival="27025.00" arrivalLane="154755073#3_0" arrivalPos="102.52" arrivalSpeed="7.11" duration="25.00" routeLength="166.65" waitSteps="0" rerouteNo="0" devices="tripinfo_225541_225541_450 hbefa_225541_225541_450" vType="DEFAULT_VEHTYPE" vaporized="">
        <emissions CO_abs="322.799942" CO2_abs="34542.679631" HC_abs="10.421652" PMx_abs="3.195614" NOx_abs="66.083907" fuel_abs="13.771631"/>
    </tripinfo>
    <tripinfo id="148867_148867_417" depart="27006.00" departLane="3065455_0" departPos="5.10" departSpeed="0.00" departDelay="6.00" arrival="27025.00" arrivalLane="23800191#0_0" arrivalPos="143.94" arrivalSpeed="13.81" duration="19.00" routeLength="194.49" waitSteps="0" rerouteNo="0" devices="tripinfo_148867_148867_417 hbefa_148867_148867_417" vType="DEFAULT_VEHTYPE" vaporized="">
        <emissions CO_abs="436.153960" CO2_abs="48724.497115" HC_abs="13.349895" PMx_abs="4.548898" NOx_abs="94.616172" fuel_abs="19.425715"/>
    </tripinfo>
    <tripinfo id="136596_136596_411" depart="27003.00" departLane="131651824_0" departPos="5.10" departSpeed="0.00" departDelay="3.00" arrival="27027.00" arrivalLane="4400211#0_0" arrivalPos="197.56" arrivalSpeed="10.39" duration="24.00" routeLength="253.49" waitSteps="0" rerouteNo="0" devices="tripinfo_136596_136596_411 hbefa_136596_136596_411" vType="DEFAULT_VEHTYPE" vaporized="">
        <emissions CO_abs="697.957778" CO2_abs="62735.139871" HC_abs="18.374273" PMx_abs="6.692606" NOx_abs="127.323746" fuel_abs="25.011540"/>
    </tripinfo>
    <tripinfo id="220353_220353_447" depart="27001.00" departLane="-165515969#3_0" departPos="5.10" departSpeed="0.00" departDelay="0.00" arrival="27027.00" arrivalLane="-165511531#0_0" arrivalPos="53.73" arrivalSpeed="13.65" duration="26.00" routeLength="345.81" waitSteps="0" rerouteNo="1" devices="tripinfo_220353_220353_447 hbefa_220353_220353_447" vType="DEFAULT_VEHTYPE" vaporized="">
        <emissions CO_abs="2143.691722" CO2_abs="132590.171989" HC_abs="43.941732" PMx_abs="16.861609" NOx_abs="292.598279" fuel_abs="52.861697"/>
    </tripinfo>
    <tripinfo id="118681_118681_405" depart="27000.00" departLane="23471158#6_0" departPos="5.10" departSpeed="0.00" departDelay="0.00" arrival="27029.00" arrivalLane="32856811#2_0" arrivalPos="144.91" arrivalSpeed="13.51" duration="29.00" routeLength="453.34" waitSteps="0" rerouteNo="0" devices="tripinfo_118681_118681_405 hbefa_118681_118681_405" vType="DEFAULT_VEHTYPE" vaporized="">
        <emissions CO_abs="2016.515361" CO2_abs="127311.718809" HC_abs="41.365621" PMx_abs="15.864044" NOx_abs="279.695291" fuel_abs="50.757269"/>
    </tripinfo>
    <tripinfo id="162999_162999_422" depart="27000.00" departLane="150031230#2_0" departPos="5.10" departSpeed="0.00" departDelay="0.00" arrival="27029.00" arrivalLane="129833341#0_1" arrivalPos="129.85" arrivalSpeed="13.27" duration="29.00" routeLength="303.50" waitSteps="0" rerouteNo="0" devices="tripinfo_162999_162999_422 hbefa_162999_162999_422" vType="DEFAULT_VEHTYPE" vaporized="">
        <emissions CO_abs="898.012127" CO2_abs="77333.892677" HC_abs="22.965311" PMx_abs="8.380267" NOx_abs="158.182654" fuel_abs="30.831838"/>
    </tripinfo>
    <tripinfo id="134089_134089_411" depart="27000.00" departLane="23800191#2_0" departPos="5.10" departSpeed="0.00" departDelay="0.00" arrival="27029.00" arrivalLane="4400211#0_0" arrivalPos="197.56" arrivalSpeed="11.61" duration="29.00" routeLength="291.90" waitSteps="0" rerouteNo="0" devices="tripinfo_134089_134089_411 hbefa_134089_134089_411" vType="DEFAULT_VEHTYPE" vaporized="">
        <emissions CO_abs="683.021688" CO2_abs="64752.991740" HC_abs="18.926942" PMx_abs="6.460912" NOx_abs="129.096161" fuel_abs="25.816024"/>
    </tripinfo>
    <tripinfo id="84113_84113_390" depart="27000.00" departLane="150031205#0_0" departPos="5.10" departSpeed="0.00" departDelay="0.00" arrival="27029.00" arrivalLane="23471158#10_0" arrivalPos="144.68" arrivalSpeed="27.33" duration="29.00" routeLength="462.65" waitSteps="0" rerouteNo="0" devices="tripinfo_84113_84113_390 hbefa_84113_84113_390" vType="DEFAULT_VEHTYPE" vaporized="">
        <emissions CO_abs="2658.203196" CO2_abs="153026.348911" HC_abs="51.604724" PMx_abs="19.483028" NOx_abs="342.353635" fuel_abs="61.009337"/>
    </tripinfo>
    <tripinfo id="188835_188835_434" depart="27006.00" departLane="187965762#1_0" departPos="5.10" departSpeed="0.00" departDelay="6.00" arrival="27030.00" arrivalLane="187965762#2_0" arrivalPos="85.18" arrivalSpeed="7.09" duration="24.00" routeLength="168.92" waitSteps="0" rerouteNo="0" devices="tripinfo_188835_188835_434 hbefa_188835_188835_434" vType="DEFAULT_VEHTYPE" vaporized="">
        <emissions CO_abs="210.597131" CO2_abs="29635.061630" HC_abs="8.341984" PMx_abs="2.406944" NOx_abs="53.991229" fuel_abs="11.815041"/>
    </tripinfo>
    <tripinfo id="104726_104726_398" depart="27000.00" departLane="23471158#5_0" departPos="5.10" departSpeed="0.00" departDelay="0.00" arrival="27031.00" arrivalLane="32856811#2_0" arrivalPos="144.91" arrivalSpeed="13.74" duration="31.00" routeLength="464.21" waitSteps="0" rerouteNo="0" devices="tripinfo_104726_104726_398 hbefa_104726_104726_398" vType="DEFAULT_VEHTYPE" vaporized="">
        <emissions CO_abs="2118.711050" CO2_abs="129455.957054" HC_abs="43.099013" PMx_abs="16.529824" NOx_abs="286.503603" fuel_abs="51.612135"/>
    </tripinfo>
    <tripinfo id="122617_122617_406" depart="27000.00" departLane="131651824_0" departPos="5.10" departSpeed="0.00" departDelay="0.00" arrival="27031.00" arrivalLane="130875842_0" arrivalPos="81.21" arrivalSpeed="12.63" duration="31.00" routeLength="334.70" waitSteps="0" rerouteNo="0" devices="tripinfo_122617_122617_406 hbefa_122617_122617_406" vType="DEFAULT_VEHTYPE" vaporized="">
        <emissions CO_abs="939.052840" CO2_abs="76599.648124" HC_abs="23.284621" PMx_abs="8.591523" NOx_abs="158.466344" fuel_abs="30.539104"/>
    </tripinfo>
    <tripinfo id="187318_187318_433" depart="27013.00" departLane="-83823403#2_0" departPos="5.10" departSpeed="0.00" departDelay="0.00" arrival="27033.00" arrivalLane="-83823403#2_0" arrivalPos="184.87" arrivalSpeed="11.04" duration="20.00" routeLength="179.77" waitSteps="1" rerouteNo="0" devices="tripinfo_187318_187318_433 hbefa_187318_187318_433" vType="DEFAULT_VEHTYPE" vaporized="">
        <emissions CO_abs="727.956899" CO2_abs="52719.440226" HC_abs="17.177641" PMx_abs="6.311251" NOx_abs="111.370016" fuel_abs="21.018427"/>
    </tripinfo>
    <tripinfo id="212444_212444_443" depart="27003.00" departLane="166155712#0_0" departPos="5.10" departSpeed="0.00" departDelay="0.00" arrival="27033.00" arrivalLane="33469672_0" arrivalPos="142.78" arrivalSpeed="12.95" duration="30.00" routeLength="317.06" waitSteps="0" rerouteNo="0" devices="tripinfo_212444_212444_443 hbefa_212444_212444_443" vType="DEFAULT_VEHTYPE" vaporized="">
        <emissions CO_abs="1006.581611" CO2_abs="78981.771899" HC_abs="24.318194" PMx_abs="9.231743" NOx_abs="165.186308" fuel_abs="31.488820"/>
    </tripinfo>
    <tripinfo id="103637_103637_397" depart="27000.00" departLane="145474196#1_0" departPos="5.10" departSpeed="0.00" departDelay="0.00" arrival="27034.00" arrivalLane="150039002#2_0" arrivalPos="249.40" arrivalSpeed="13.46" duration="34.00" routeLength="361.28" waitSteps="0" rerouteNo="0" devices="tripinfo_103637_103637_397 hbefa_103637_103637_397" vType="DEFAULT_VEHTYPE" vaporized="">
        <emissions CO_abs="929.048062" CO2_abs="82580.109440" HC_abs="24.255758" PMx_abs="8.771156" NOx_abs="167.755077" fuel_abs="32.923425"/>
    </tripinfo>
    <tripinfo id="208001_208001_441" depart="27001.00" departLane="-83823403#2_0" departPos="5.10" departSpeed="0.00" departDelay="0.00" arrival="27035.00" arrivalLane="23015529#0_0" arrivalPos="184.87" arrivalSpeed="12.69" duration="34.00" routeLength="364.64" waitSteps="0" rerouteNo="0" devices="tripinfo_208001_208001_441 hbefa_208001_208001_441" vType="DEFAULT_VEHTYPE" vaporized="">
        <emissions CO_abs="918.122879" CO2_abs="83896.846436" HC_abs="24.429674" PMx_abs="8.773649" NOx_abs="169.499695" fuel_abs="33.448389"/>
    </tripinfo>
    <tripinfo id="217202_217202_446" depart="27007.00" departLane="-83823403#2_0" departPos="5.10" departSpeed="0.00" departDelay="0.00" arrival="27035.00" arrivalLane="23015533_0" arrivalPos="110.79" arrivalSpeed="13.54" duration="28.00" routeLength="290.56" waitSteps="0" rerouteNo="0" devices="tripinfo_217202_217202_446 hbefa_217202_217202_446" vType="DEFAULT_VEHTYPE" vaporized="">
        <emissions CO_abs="796.254408" CO2_abs="70149.093453" HC_abs="20.871903" PMx_abs="7.321649" NOx_abs="142.172872" fuel_abs="27.967368"/>
    </tripinfo>
    <tripinfo id="146563_146563_416" depart="27004.00" departLane="129833340#2_0" departPos="5.10" departSpeed="0.00" departDelay="4.00" arrival="27036.00" arrivalLane="154755096_0" arrivalPos="66.91" arrivalSpeed="12.83" duration="32.00" routeLength="417.33" waitSteps="0" rerouteNo="0" devices="tripinfo_146563_146563_416 hbefa_146563_146563_416" vType="DEFAULT_VEHTYPE" vaporized="">
        <emissions CO_abs="2304.551027" CO2_abs="140017.573551" HC_abs="46.777457" PMx_abs="17.973178" NOx_abs="310.147371" fuel_abs="55.822894"/>
    </tripinfo>
    <tripinfo id="103310_103310_397" depart="27000.00" departLane="83703645_0" departPos="5.10" departSpeed="0.00" departDelay="0.00" arrival="27036.00" arrivalLane="23493177#0_0" arrivalPos="166.52" arrivalSpeed="7.26" duration="36.00" routeLength="279.85" waitSteps="0" rerouteNo="0" devices="tripinfo_103310_103310_397 hbefa_103310_103310_397" vType="DEFAULT_VEHTYPE" vaporized="">
        <emissions CO_abs="679.234696" CO2_abs="62594.776522" HC_abs="19.113750" PMx_abs="6.467215" NOx_abs="124.521275" fuel_abs="24.955569"/>
    </tripinfo>
    <tripinfo id="154499_154499_420" depart="27000.00" departLane="28542995#0_0" departPos="5.10" departSpeed="0.00" departDelay="0.00" arrival="27038.00" arrivalLane="23493260#4_1" arrivalPos="126.60" arrivalSpeed="13.17" duration="38.00" routeLength="435.19" waitSteps="0" rerouteNo="1" devices="tripinfo_154499_154499_420 hbefa_154499_154499_420" vType="DEFAULT_VEHTYPE" vaporized="">
        <emissions CO_abs="1087.667897" CO2_abs="90186.769087" HC_abs="27.254143" PMx_abs="10.064511" NOx_abs="186.007207" fuel_abs="35.956082"/>
    </tripinfo>
    <tripinfo id="138122_138122_412" depart="27009.00" departLane="131651824_0" departPos="5.10" departSpeed="0.00" departDelay="9.00" arrival="27039.00" arrivalLane="130875842_0" arrivalPos="81.21" arrivalSpeed="12.64" duration="30.00" routeLength="334.70" waitSteps="0" rerouteNo="0" devices="tripinfo_138122_138122_412 hbefa_138122_138122_412" vType="DEFAULT_VEHTYPE" vaporized="">
        <emissions CO_abs="906.405963" CO2_abs="77076.127084" HC_abs="22.859496" PMx_abs="8.459924" NOx_abs="158.473420" fuel_abs="30.729072"/>
    </tripinfo>
    <tripinfo id="218769_218769_446" depart="27003.00" departLane="-55940134_0" departPos="5.10" departSpeed="0.00" departDelay="3.00" arrival="27040.00" arrivalLane="-144935692#1_1" arrivalPos="103.61" arrivalSpeed="13.07" duration="37.00" routeLength="447.77" waitSteps="0" rerouteNo="0" devices="tripinfo_218769_218769_446 hbefa_218769_218769_446" vType="DEFAULT_VEHTYPE" vaporized="">
        <emissions CO_abs="602.699116" CO2_abs="69048.583362" HC_abs="18.231973" PMx_abs="6.508383" NOx_abs="134.623718" fuel_abs="27.528623"/>
    </tripinfo>
    <tripinfo id="238887_238887_451" depart="27010.00" departLane="-83823403#2_0" departPos="5.10" departSpeed="0.00" departDelay="0.00" arrival="27040.00" arrivalLane="23015533_0" arrivalPos="110.79" arrivalSpeed="12.78" duration="30.00" routeLength="290.56" waitSteps="0" rerouteNo="0" devices="tripinfo_238887_238887_451 hbefa_238887_238887_451" vType="DEFAULT_VEHTYPE" vaporized="">
        <emissions CO_abs="880.424993" CO2_abs="72298.063856" HC_abs="22.290341" PMx_abs="7.778870" NOx_abs="148.235685" fuel_abs="28.824127"/>
    </tripinfo>
    <tripinfo id="171544_171544_426" depart="27000.00" departLane="187965762#1_0" departPos="5.10" departSpeed="0.00" departDelay="0.00" arrival="27040.00" arrivalLane="23800191#0_0" arrivalPos="143.94" arrivalSpeed="13.71" duration="40.00" routeLength="368.51" waitSteps="0" rerouteNo="0" devices="tripinfo_171544_171544_426 hbefa_171544_171544_426" vType="DEFAULT_VEHTYPE" vaporized="">
        <emissions CO_abs="577.462880" CO2_abs="67724.917312" HC_abs="18.702128" PMx_abs="6.181391" NOx_abs="129.981539" fuel_abs="27.000888"/>
    </tripinfo>
    <tripinfo id="184987_184987_431" depart="27000.00" departLane="-186463490#0_0" departPos="5.10" departSpeed="0.00" departDelay="0.00" arrival="27042.00" arrivalLane="-144935692#1_1" arrivalPos="103.61" arrivalSpeed="13.62" duration="42.00" routeLength="500.46" waitSteps="0" rerouteNo="0" devices="tripinfo_184987_184987_431 hbefa_184987_184987_431" vType="DEFAULT_VEHTYPE" vaporized="">
        <emissions CO_abs="646.736444" CO2_abs="81301.598638" HC_abs="21.060675" PMx_abs="7.152769" NOx_abs="155.842436" fuel_abs="32.413715"/>
    </tripinfo>
    <tripinfo id="101376_101376_396" depart="27003.00" departLane="23471158#0_0" departPos="5.10" departSpeed="0.00" departDelay="3.00" arrival="27042.00" arrivalLane="32856811#2_0" arrivalPos="144.91" arrivalSpeed="13.78" duration="39.00" routeLength="664.02" waitSteps="0" rerouteNo="0" devices="tripinfo_101376_101376_396 hbefa_101376_101376_396" vType="DEFAULT_VEHTYPE" vaporized="">
        <emissions CO_abs="3172.259591" CO2_abs="188619.973194" HC_abs="62.191445" PMx_abs="24.042878" NOx_abs="420.588086" fuel_abs="75.199979"/>
    </tripinfo>
    <tripinfo id="101768_101768_396" depart="27000.00" departLane="23493181#0_0" departPos="5.10" departSpeed="0.00" departDelay="0.00" arrival="27042.00" arrivalLane="122989592#2_1" arrivalPos="74.34" arrivalSpeed="7.11" duration="42.00" routeLength="323.96" waitSteps="0" rerouteNo="0" devices="tripinfo_101768_101768_396 hbefa_101768_101768_396" vType="DEFAULT_VEHTYPE" vaporized="">
        <emissions CO_abs="634.885074" CO2_abs="58824.866928" HC_abs="17.871015" PMx_abs="5.928637" NOx_abs="116.904390" fuel_abs="23.452565"/>
    </tripinfo>
    <tripinfo id="197472_197472_436" depart="27006.00" departLane="23800191#2_0" departPos="5.10" departSpeed="0.00" departDelay="6.00" arrival="27042.00" arrivalLane="130875842_0" arrivalPos="81.21" arrivalSpeed="13.29" duration="36.00" routeLength="373.11" waitSteps="0" rerouteNo="0" devices="tripinfo_197472_197472_436 hbefa_197472_197472_436" vType="DEFAULT_VEHTYPE" vaporized="">
        <emissions CO_abs="912.210152" CO2_abs="81570.042501" HC_abs="24.278192" PMx_abs="8.530838" NOx_abs="164.804953" fuel_abs="32.520724"/>
    </tripinfo>
    <tripinfo id="244420_244420_453" depart="27015.00" departLane="-165515969#3_0" departPos="5.10" departSpeed="0.00" departDelay="0.00" arrival="27042.00" arrivalLane="-165511531#0_0" arrivalPos="53.73" arrivalSpeed="13.56" duration="27.00" routeLength="345.81" waitSteps="0" rerouteNo="1" devices="tripinfo_244420_244420_453 hbefa_244420_244420_453" vType="DEFAULT_VEHTYPE" vaporized="">
        <emissions CO_abs="2133.379637" CO2_abs="131855.707014" HC_abs="43.974311" PMx_abs="16.836658" NOx_abs="290.984452" fuel_abs="52.568867"/>
    </tripinfo>
    <tripinfo id="144652_144652_416" depart="27000.00" departLane="3065455_0" departPos="5.10" departSpeed="0.00" departDelay="0.00" arrival="27043.00" arrivalLane="130659365_0" arrivalPos="223.21" arrivalSpeed="6.95" duration="43.00" routeLength="365.42" waitSteps="2" rerouteNo="0" devices="tripinfo_144652_144652_416 hbefa_144652_144652_416" vType="DEFAULT_VEHTYPE" vaporized="">
        <emissions CO_abs="850.395597" CO2_abs="70382.622082" HC_abs="21.588324" PMx_abs="7.702084" NOx_abs="144.414611" fuel_abs="28.060471"/>
    </tripinfo>
    <tripinfo id="211099_211099_442" depart="27013.00" departLane="166155712#0_0" departPos="5.10" departSpeed="0.00" departDelay="0.00" arrival="27043.00" arrivalLane="33469672_0" arrivalPos="142.78" arrivalSpeed="13.63" duration="30.00" routeLength="317.06" waitSteps="0" rerouteNo="0" devices="tripinfo_211099_211099_442 hbefa_211099_211099_442" vType="DEFAULT_VEHTYPE" vaporized="">
        <emissions CO_abs="911.097109" CO2_abs="79914.065597" HC_abs="23.567606" PMx_abs="8.584894" NOx_abs="162.885876" fuel_abs="31.860514"/>
    </tripinfo>
    <tripinfo id="212327_212327_442" depart="27014.00" departLane="198147972_0" departPos="5.10" departSpeed="0.00" departDelay="0.00" arrival="27043.00" arrivalLane="4353628#1_0" arrivalPos="68.95" arrivalSpeed="13.58" duration="29.00" routeLength="339.08" waitSteps="0" rerouteNo="0" devices="tripinfo_212327_212327_442 hbefa_212327_212327_442" vType="DEFAULT_VEHTYPE" vaporized="">
        <emissions CO_abs="627.479212" CO2_abs="63062.749297" HC_abs="17.681047" PMx_abs="6.126981" NOx_abs="125.045747" fuel_abs="25.142157"/>
    </tripinfo>
    <tripinfo id="224931_224931_449" depart="27026.00" departLane="-28523795_0" departPos="5.10" departSpeed="0.00" departDelay="0.00" arrival="27044.00" arrivalLane="-28523795_0" arrivalPos="192.02" arrivalSpeed="12.74" duration="18.00" routeLength="186.92" waitSteps="0" rerouteNo="0" devices="tripinfo_224931_224931_449 hbefa_224931_224931_449" vType="DEFAULT_VEHTYPE" vaporized="">
        <emissions CO_abs="422.388772" CO2_abs="39272.749287" HC_abs="11.637089" PMx_abs="4.022014" NOx_abs="78.558824" fuel_abs="15.657443"/>
    </tripinfo>
    <tripinfo id="140107_140107_414" depart="27000.00" departLane="154755117_0" departPos="5.10" departSpeed="0.00" departDelay="0.00" arrival="27045.00" arrivalLane="23800191#0_0" arrivalPos="143.94" arrivalSpeed="12.90" duration="45.00" routeLength="212.88" waitSteps="16" rerouteNo="0" devices="tripinfo_140107_140107_414 hbefa_140107_140107_414" vType="DEFAULT_VEHTYPE" vaporized="">
        <emissions CO_abs="715.943550" CO2_abs="64463.762444" HC_abs="21.999605" PMx_abs="6.186326" NOx_abs="124.176778" fuel_abs="25.700707"/>
    </tripinfo>
    <tripinfo id="245947_245947_454" depart="27017.00" departLane="-83823403#2_0" departPos="5.10" departSpeed="0.00" departDelay="1.00" arrival="27046.00" arrivalLane="23015533_0" arrivalPos="110.79" arrivalSpeed="12.77" duration="29.00" routeLength="290.56" waitSteps="0" rerouteNo="0" devices="tripinfo_245947_245947_454 hbefa_245947_245947_454" vType="DEFAULT_VEHTYPE" vaporized="">
        <emissions CO_abs="947.010653" CO2_abs="71116.912786" HC_abs="22.485403" PMx_abs="8.493255" NOx_abs="149.838462" fuel_abs="28.353218"/>
    </tripinfo>
    <tripinfo id="221885_221885_448" depart="27017.00" departLane="-175607927#0_0" departPos="5.10" departSpeed="0.00" departDelay="0.00" arrival="27046.00" arrivalLane="-29214406_0" arrivalPos="179.38" arrivalSpeed="13.71" duration="29.00" routeLength="317.06" waitSteps="0" rerouteNo="1" devices="tripinfo_221885_221885_448 hbefa_221885_221885_448" vType="DEFAULT_VEHTYPE" vaporized="">
        <emissions CO_abs="852.432076" CO2_abs="73232.944442" HC_abs="21.820958" PMx_abs="7.954426" NOx_abs="149.872905" fuel_abs="29.196853"/>
    </tripinfo>
    <tripinfo id="95606_95606_394" depart="27000.00" departLane="8225148_0" departPos="5.10" departSpeed="0.00" departDelay="0.00" arrival="27047.00" arrivalLane="145261451_0" arrivalPos="86.92" arrivalSpeed="13.59" duration="47.00" routeLength="515.94" waitSteps="0" rerouteNo="0" devices="tripinfo_95606_95606_394 hbefa_95606_95606_394" vType="DEFAULT_VEHTYPE" vaporized="">
        <emissions CO_abs="1204.723318" CO2_abs="102495.829654" HC_abs="30.669080" PMx_abs="11.030029" NOx_abs="209.865251" fuel_abs="40.863516"/>
    </tripinfo>
    <tripinfo id="244003_244003_453" depart="27029.00" departLane="-28523795_0" departPos="5.10" departSpeed="0.00" departDelay="0.00" arrival="27047.00" arrivalLane="-28523795_0" arrivalPos="192.02" arrivalSpeed="12.75" duration="18.00" routeLength="186.92" waitSteps="0" rerouteNo="0" devices="tripinfo_244003_244003_453 hbefa_244003_244003_453" vType="DEFAULT_VEHTYPE" vaporized="">
        <emissions CO_abs="511.600308" CO2_abs="42025.085886" HC_abs="12.944086" PMx_abs="4.493016" NOx_abs="86.121694" fuel_abs="16.754756"/>
    </tripinfo>
    <tripinfo id="138230_138230_412" depart="27001.00" departLane="129833340#2_0" departPos="5.10" departSpeed="0.00" departDelay="1.00" arrival="27047.00" arrivalLane="150039002#2_0" arrivalPos="249.40" arrivalSpeed="13.27" duration="46.00" routeLength="596.79" waitSteps="0" rerouteNo="0" devices="tripinfo_138230_138230_412 hbefa_138230_138230_412" vType="DEFAULT_VEHTYPE" vaporized="">