<?xml version="1.0" encoding="UTF-8"?>

<!-- generated on Wed May 14 10:54:38 2014 by SUMO sumo Version dev-SVN-r15641
<?xml version="1.0" encoding="UTF-8"?>

<configuration xmlns:xsi="http://www.w3.org/2001/XMLSchema-instance" xsi:noNamespaceSchemaLocation="http://sumo-sim.org/xsd/sumoConfiguration.xsd">

    <input>
        <net-file value="data/map.net.xml"/>
        <route-files value="data/map.rou.xml"/>
    </input>

    <output>
        <tripinfo-output value="data/maptripinfo.out.xml"/>
        <save-state.prefix value="data/state"/>
    </output>

    <time>
        <begin value="27000"/>
        <end value="27900"/>
    </time>

    <processing>
        <route-steps value="200"/>
        <scale value="0.8"/>
        <time-to-teleport value="300"/>
        <lanechange.allow-swap value="true"/>
    </processing>

    <report>
        <verbose value="true"/>
        <no-warnings value="true"/>
        <no-step-log value="true"/>
    </report>

    <emissions>
        <device.hbefa.probability value="1"/>
    </emissions>

    <traci_server>
        <remote-port value="8814"/>
    </traci_server>

</configuration>
-->

<tripinfos>
    <tripinfo id="136022_136022_411" depart="27003.00" departLane="23800191#2_0" departPos="5.10" departSpeed="0.00" departDelay="3.00" arrival="27009.00" arrivalLane="23800191#2_0" arrivalPos="38.41" arrivalSpeed="12.77" duration="6.00" routeLength="33.31" waitSteps="0" rerouteNo="1" devices="tripinfo_136022_136022_411 hbefa_136022_136022_411" vType="DEFAULT_VEHTYPE" vaporized="">
        <emissions CO_abs="428.509280" CO2_abs="27544.787514" HC_abs="9.468673" PMx_abs="3.602621" NOx_abs="59.966362" fuel_abs="10.981679"/>
    </tripinfo>
    <tripinfo id="182087_182087_431" depart="27000.00" departLane="4380937#2_0" departPos="5.10" departSpeed="0.00" departDelay="0.00" arrival="27011.00" arrivalLane="4380937#3_0" arrivalPos="72.76" arrivalSpeed="12.74" duration="11.00" routeLength="103.50" waitSteps="0" rerouteNo="3" devices="tripinfo_182087_182087_431 hbefa_182087_182087_431" vType="DEFAULT_VEHTYPE" vaporized="">
        <emissions CO_abs="505.387867" CO2_abs="35040.993897" HC_abs="11.497489" PMx_abs="4.455515" NOx_abs="75.266057" fuel_abs="13.970304"/>
    </tripinfo>
    <tripinfo id="105435_105435_398" depart="27003.00" departLane="145474196#1_0" departPos="5.10" departSpeed="0.00" departDelay="3.00" arrival="27013.00" arrivalLane="145474196#1_0" arrivalPos="94.12" arrivalSpeed="12.74" duration="10.00" routeLength="89.02" waitSteps="0" rerouteNo="1" devices="tripinfo_105435_105435_398 hbefa_105435_105435_398" vType="DEFAULT_VEHTYPE" vaporized="">
        <emissions CO_abs="433.277408" CO2_abs="34214.673170" HC_abs="10.742371" PMx_abs="3.856701" NOx_abs="70.846202" fuel_abs="13.640863"/>
    </tripinfo>
    <tripinfo id="72912_72912_384" depart="27003.00" departLane="9207803_0" departPos="5.10" departSpeed="0.00" departDelay="3.00" arrival="27013.00" arrivalLane="9207803_0" arrivalPos="69.23" arrivalSpeed="8.17" duration="10.00" routeLength="64.13" waitSteps="0" rerouteNo="1" devices="tripinfo_72912_72912_384 hbefa_72912_72912_384" vType="DEFAULT_VEHTYPE" vaporized="">
        <emissions CO_abs="166.500222" CO2_abs="16831.464576" HC_abs="5.251310" PMx_abs="1.579959" NOx_abs="32.351953" fuel_abs="6.710444"/>
    </tripinfo>
    <tripinfo id="92380_92380_392" depart="27000.00" departLane="-154755073#3_0" departPos="5.10" departSpeed="0.00" departDelay="0.00" arrival="27015.00" arrivalLane="-154755073#3_0" arrivalPos="102.52" arrivalSpeed="7.35" duration="15.00" routeLength="97.42" waitSteps="0" rerouteNo="1" devices="tripinfo_92380_92380_392 hbefa_92380_92380_392" vType="DEFAULT_VEHTYPE" vaporized="">
        <emissions CO_abs="233.051009" CO2_abs="22743.164971" HC_abs="7.078985" PMx_abs="2.249005" NOx_abs="44.300244" fuel_abs="9.067347"/>
    </tripinfo>
    <tripinfo id="251564_251564_457" depart="27002.00" departLane="51113317_0" departPos="5.10" departSpeed="0.00" departDelay="0.00" arrival="27015.00" arrivalLane="51113317_0" arrivalPos="125.08" arrivalSpeed="12.91" duration="13.00" routeLength="119.98" waitSteps="0" rerouteNo="1" devices="tripinfo_251564_251564_457 hbefa_251564_251564_457" vType="DEFAULT_VEHTYPE" vaporized="">
        <emissions CO_abs="461.749692" CO2_abs="37385.113582" HC_abs="11.573267" PMx_abs="4.205833" NOx_abs="77.175083" fuel_abs="14.904870"/>
    </tripinfo>
    <tripinfo id="105964_105964_399" depart="27006.00" departLane="145474196#1_0" departPos="5.10" departSpeed="0.00" departDelay="6.00" arrival="27016.00" arrivalLane="145474196#1_0" arrivalPos="94.12" arrivalSpeed="13.22" duration="10.00" routeLength="89.02" waitSteps="0" rerouteNo="1" devices="tripinfo_105964_105964_399 hbefa_105964_105964_399" vType="DEFAULT_VEHTYPE" vaporized="">
        <emissions CO_abs="510.083170" CO2_abs="35183.499052" HC_abs="11.586396" PMx_abs="4.473050" NOx_abs="75.614262" fuel_abs="14.027118"/>
    </tripinfo>
    <tripinfo id="84049_84049_390" depart="27006.00" departLane="9207803_0" departPos="5.10" departSpeed="0.00" departDelay="6.00" arrival="27017.00" arrivalLane="9207803_0" arrivalPos="69.23" arrivalSpeed="8.26" duration="11.00" routeLength="64.13" waitSteps="0" rerouteNo="1" devices="tripinfo_84049_84049_390 hbefa_84049_84049_390" vType="DEFAULT_VEHTYPE" vaporized="">
        <emissions CO_abs="182.923640" CO2_abs="19099.520240" HC_abs="5.917057" PMx_abs="1.705778" NOx_abs="36.370515" fuel_abs="7.614682"/>
    </tripinfo>
    <tripinfo id="232041_232041_451" depart="27002.00" departLane="28523795_0" departPos="5.10" departSpeed="0.00" departDelay="0.00" arrival="27019.00" arrivalLane="28523795_0" arrivalPos="192.02" arrivalSpeed="13.84" duration="17.00" routeLength="186.92" waitSteps="0" rerouteNo="1" devices="tripinfo_232041_232041_451 hbefa_232041_232041_451" vType="DEFAULT_VEHTYPE" vaporized="">
        <emissions CO_abs="524.202085" CO2_abs="45098.357547" HC_abs="13.456276" PMx_abs="4.915519" NOx_abs="92.247510" fuel_abs="17.980025"/>
    </tripinfo>
    <tripinfo id="135880_135880_411" depart="27000.00" departLane="150039002#2_0" departPos="5.10" departSpeed="0.00" departDelay="0.00" arrival="27022.00" arrivalLane="150039002#2_0" arrivalPos="249.40" arrivalSpeed="13.41" duration="22.00" routeLength="244.30" waitSteps="0" rerouteNo="1" devices="tripinfo_135880_135880_411 hbefa_135880_135880_411" vType="DEFAULT_VEHTYPE" vaporized="">
        <emissions CO_abs="539.262292" CO2_abs="50026.111234" HC_abs="14.566293" PMx_abs="5.043639" NOx_abs="100.331814" fuel_abs="19.944645"/>
    </tripinfo>
    <tripinfo id="219187_219187_446" depart="27000.00" departLane="144935690_0" departPos="5.10" departSpeed="0.00" departDelay="0.00" arrival="27022.00" arrivalLane="25997632_0" arrivalPos="136.14" arrivalSpeed="13.04" duration="22.00" routeLength="241.37" waitSteps="0" rerouteNo="3" devices="tripinfo_219187_219187_446 hbefa_219187_219187_446" vType="DEFAULT_VEHTYPE" vaporized="">
        <emissions CO_abs="516.329086" CO2_abs="51252.004639" HC_abs="14.510047" PMx_abs="5.099014" NOx_abs="101.887173" fuel_abs="20.433392"/>
    </tripinfo>
    <tripinfo id="206737_206737_440" depart="27007.00" departLane="-29206900_0" departPos="5.10" departSpeed="0.00" departDelay="0.00" arrival="27022.00" arrivalLane="29207110_0" arrivalPos="28.94" arrivalSpeed="13.68" duration="15.00" routeLength="103.46" waitSteps="0" rerouteNo="2" devices="tripinfo_206737_206737_440 hbefa_206737_206737_440" vType="DEFAULT_VEHTYPE" vaporized="">
        <emissions CO_abs="487.548581" CO2_abs="38127.331233" HC_abs="12.272214" PMx_abs="4.318543" NOx_abs="78.671107" fuel_abs="15.200777"/>
    </tripinfo>
    <tripinfo id="225242_225242_449" depart="27000.00" departLane="154755124_0" departPos="5.10" departSpeed="0.00" departDelay="0.00" arrival="27024.00" arrivalLane="4380937#3_1" arrivalPos="72.76" arrivalSpeed="13.44" duration="24.00" routeLength="189.24" waitSteps="0" rerouteNo="5" devices="tripinfo_225242_225242_449 hbefa_225242_225242_449" vType="DEFAULT_VEHTYPE" vaporized="">
        <emissions CO_abs="617.790692" CO2_abs="52189.285341" HC_abs="16.304311" PMx_abs="5.613727" NOx_abs="105.819974" fuel_abs="20.807062"/>
    </tripinfo>
    <tripinfo id="110327_110327_401" depart="27000.00" departLane="53212166#0_0" departPos="5.10" departSpeed="0.00" departDelay="0.00" arrival="27024.00" arrivalLane="28542995#2_2" arrivalPos="61.74" arrivalSpeed="12.74" duration="24.00" routeLength="231.82" waitSteps="0" rerouteNo="0" devices="tripinfo_110327_110327_401 hbefa_110327_110327_401" vType="DEFAULT_VEHTYPE" vaporized="">
        <emissions CO_abs="500.980805" CO2_abs="50857.023179" HC_abs="14.558643" PMx_abs="4.917200" NOx_abs="100.058665" fuel_abs="20.275916"/>
    </tripinfo>
    <tripinfo id="225541_225541_450" depart="27000.00" departLane="9207803_0" departPos="5.10" departSpeed="0.00" departDelay="0.00" arrival="27024.00" arrivalLane="154755073#3_0" arrivalPos="102.52" arrivalSpeed="7.12" duration="24.00" routeLength="166.65" waitSteps="0" rerouteNo="3" devices="tripinfo_225541_225541_450 hbefa_225541_225541_450" vType="DEFAULT_VEHTYPE" vaporized="">
        <emissions CO_abs="275.889172" CO2_abs="35106.688155" HC_abs="10.109248" PMx_abs="3.177311" NOx_abs="65.495098" fuel_abs="13.996493"/>
    </tripinfo>
    <tripinfo id="148867_148867_417" depart="27006.00" departLane="3065455_0" departPos="5.10" departSpeed="0.00" departDelay="6.00" arrival="27024.00" arrivalLane="23800191#0_0" arrivalPos="143.94" arrivalSpeed="13.55" duration="18.00" routeLength="194.49" waitSteps="0" rerouteNo="2" devices="tripinfo_148867_148867_417 hbefa_148867_148867_417" vType="DEFAULT_VEHTYPE" vaporized="">
        <emissions CO_abs="427.571250" CO2_abs="42765.876100" HC_abs="12.222607" PMx_abs="4.147975" NOx_abs="84.492450" fuel_abs="17.050101"/>
    </tripinfo>
    <tripinfo id="68737_68737_381" depart="27011.00" departLane="23493176_0" departPos="5.10" departSpeed="0.00" departDelay="11.00" arrival="27025.00" arrivalLane="23493176_1" arrivalPos="83.31" arrivalSpeed="4.51" duration="14.00" routeLength="78.21" waitSteps="0" rerouteNo="1" devices="tripinfo_68737_68737_381 hbefa_68737_68737_381" vType="DEFAULT_VEHTYPE" vaporized="">
        <emissions CO_abs="234.599675" CO2_abs="20163.596276" HC_abs="6.675404" PMx_abs="2.084338" NOx_abs="39.944796" fuel_abs="8.038912"/>
    </tripinfo>
    <tripinfo id="141415_141415_415" depart="27003.00" departLane="150039002#2_0" departPos="5.10" departSpeed="0.00" departDelay="3.00" arrival="27025.00" arrivalLane="150039002#2_0" arrivalPos="249.40" arrivalSpeed="12.87" duration="22.00" routeLength="244.30" waitSteps="0" rerouteNo="1" devices="tripinfo_141415_141415_415 hbefa_141415_141415_415" vType="DEFAULT_VEHTYPE" vaporized="">
        <emissions CO_abs="542.135605" CO2_abs="50431.489537" HC_abs="14.588960" PMx_abs="5.197972" NOx_abs="101.506655" fuel_abs="20.106264"/>
    </tripinfo>
    <tripinfo id="136596_136596_411" depart="27003.00" departLane="131651824_0" departPos="5.10" departSpeed="0.00" departDelay="3.00" arrival="27026.00" arrivalLane="4400211#0_0" arrivalPos="197.56" arrivalSpeed="13.86" duration="23.00" routeLength="253.49" waitSteps="0" rerouteNo="2" devices="tripinfo_136596_136596_411 hbefa_136596_136596_411" vType="DEFAULT_VEHTYPE" vaporized="">
        <emissions CO_abs="555.684610" CO2_abs="54366.749278" HC_abs="15.504087" PMx_abs="5.438227" NOx_abs="108.250275" fuel_abs="21.675193"/>
    </tripinfo>
    <tripinfo id="75851_75851_386" depart="27002.00" departLane="28542995#2_0" departPos="5.10" departSpeed="0.00" departDelay="2.00" arrival="27027.00" arrivalLane="23493181#0_0" arrivalPos="88.20" arrivalSpeed="10.67" duration="25.00" routeLength="144.84" waitSteps="0" rerouteNo="2" devices="tripinfo_75851_75851_386 hbefa_75851_75851_386" vType="DEFAULT_VEHTYPE" vaporized="">
        <emissions CO_abs="696.707750" CO2_abs="55098.487004" HC_abs="17.985792" PMx_abs="6.320631" NOx_abs="112.916824" fuel_abs="21.966911"/>
    </tripinfo>
    <tripinfo id="220353_220353_447" depart="27001.00" departLane="-165515969#3_0" departPos="5.10" departSpeed="0.00" departDelay="0.00" arrival="27027.00" arrivalLane="-165511531#0_0" arrivalPos="53.73" arrivalSpeed="13.35" duration="26.00" routeLength="345.81" waitSteps="0" rerouteNo="3" devices="tripinfo_220353_220353_447 hbefa_220353_220353_447" vType="DEFAULT_VEHTYPE" vaporized="">
        <emissions CO_abs="2091.001672" CO2_abs="130689.825682" HC_abs="43.127020" PMx_abs="16.358262" NOx_abs="287.312470" fuel_abs="52.104059"/>
    </tripinfo>
    <tripinfo id="134089_134089_411" depart="27000.00" departLane="23800191#2_0" departPos="5.10" departSpeed="0.00" departDelay="0.00" arrival="27028.00" arrivalLane="4400211#0_0" arrivalPos="197.56" arrivalSpeed="13.22" duration="28.00" routeLength="291.90" waitSteps="0" rerouteNo="3" devices="tripinfo_134089_134089_411 hbefa_134089_134089_411" vType="DEFAULT_VEHTYPE" vaporized="">
        <emissions CO_abs="677.951253" CO2_abs="64037.514052" HC_abs="18.439713" PMx_abs="6.537620" NOx_abs="128.447864" fuel_abs="25.530778"/>
    </tripinfo>
    <tripinfo id="188835_188835_434" depart="27006.00" departLane="187965762#1_0" departPos="5.10" departSpeed="0.00" departDelay="6.00" arrival="27030.00" arrivalLane="187965762#2_0" arrivalPos="85.18" arrivalSpeed="7.23" duration="24.00" routeLength="168.92" waitSteps="0" rerouteNo="3" devices="tripinfo_188835_188835_434 hbefa_188835_188835_434" vType="DEFAULT_VEHTYPE" vaporized="">
        <emissions CO_abs="240.680976" CO2_abs="31779.430147" HC_abs="9.032594" PMx_abs="2.730272" NOx_abs="58.990091" fuel_abs="12.669967"/>
    </tripinfo>
    <tripinfo id="187318_187318_433" depart="27013.00" departLane="-83823403#2_0" departPos="5.10" departSpeed="0.00" departDelay="0.00" arrival="27030.00" arrivalLane="-83823403#2_0" arrivalPos="184.87" arrivalSpeed="13.67" duration="17.00" routeLength="179.77" waitSteps="0" rerouteNo="1" devices="tripinfo_187318_187318_433 hbefa_187318_187318_433" vType="DEFAULT_VEHTYPE" vaporized="">
        <emissions CO_abs="577.377669" CO2_abs="50816.290872" HC_abs="15.022398" PMx_abs="5.564502" NOx_abs="103.603399" fuel_abs="20.259677"/>
    </tripinfo>
    <tripinfo id="118681_118681_405" depart="27000.00" departLane="23471158#6_0" departPos="5.10" departSpeed="0.00" departDelay="0.00" arrival="27031.00" arrivalLane="32856811#2_0" arrivalPos="144.91" arrivalSpeed="13.56" duration="31.00" routeLength="453.34" waitSteps="0" rerouteNo="3" devices="tripinfo_118681_118681_405 hbefa_118681_118681_405" vType="DEFAULT_VEHTYPE" vaporized="">
        <emissions CO_abs="2139.186177" CO2_abs="138434.635286" HC_abs="44.577059" PMx_abs="16.915054" NOx_abs="301.953053" fuel_abs="55.191809"/>
    </tripinfo>
    <tripinfo id="122617_122617_406" depart="27000.00" departLane="131651824_0" departPos="5.10" departSpeed="0.00" departDelay="0.00" arrival="27031.00" arrivalLane="130875842_0" arrivalPos="81.21" arrivalSpeed="12.60" duration="31.00" routeLength="334.70" waitSteps="0" rerouteNo="3" devices="tripinfo_122617_122617_406 hbefa_122617_122617_406" vType="DEFAULT_VEHTYPE" vaporized="">
        <emissions CO_abs="882.638714" CO2_abs="76711.359015" HC_abs="22.735482" PMx_abs="8.271702" NOx_abs="156.646291" fuel_abs="30.583644"/>
    </tripinfo>
    <tripinfo id="104726_104726_398" depart="27000.00" departLane="23471158#5_0" departPos="5.10" departSpeed="0.00" departDelay="0.00" arrival="27032.00" arrivalLane="32856811#2_0" arrivalPos="144.91" arrivalSpeed="13.68" duration="32.00" routeLength="464.21" waitSteps="0" rerouteNo="0" devices="tripinfo_104726_104726_398 hbefa_104726_104726_398" vType="DEFAULT_VEHTYPE" vaporized="">
        <emissions CO_abs="2085.376019" CO2_abs="132493.682991" HC_abs="43.291820" PMx_abs="16.424866" NOx_abs="290.136871" fuel_abs="52.823234"/>
    </tripinfo>
    <tripinfo id="103637_103637_397" depart="27000.00" departLane="145474196#1_0" departPos="5.10" departSpeed="0.00" departDelay="0.00" arrival="27032.00" arrivalLane="150039002#2_1" arrivalPos="249.40" arrivalSpeed="12.98" duration="32.00" routeLength="361.28" waitSteps="0" rerouteNo="2" devices="tripinfo_103637_103637_397 hbefa_103637_103637_397" vType="DEFAULT_VEHTYPE" vaporized="">
        <emissions CO_abs="834.439429" CO2_abs="77671.750167" HC_abs="22.316884" PMx_abs="8.055924" NOx_abs="156.595589" fuel_abs="30.966540"/>
    </tripinfo>
    <tripinfo id="212444_212444_443" depart="27003.00" departLane="166155712#0_0" departPos="5.10" departSpeed="0.00" departDelay="0.00" arrival="27032.00" arrivalLane="33469672_0" arrivalPos="142.78" arrivalSpeed="13.51" duration="29.00" routeLength="317.06" waitSteps="0" rerouteNo="2" devices="tripinfo_212444_212444_443 hbefa_212444_212444_443" vType="DEFAULT_VEHTYPE" vaporized="">
        <emissions CO_abs="983.410867" CO2_abs="74672.697077" HC_abs="23.275090" PMx_abs="8.825980" NOx_abs="157.231373" fuel_abs="29.770857"/>
    </tripinfo>
    <tripinfo id="208001_208001_441" depart="27001.00" departLane="-83823403#2_0" departPos="5.10" departSpeed="0.00" departDelay="0.00" arrival="27033.00" arrivalLane="23015529#0_0" arrivalPos="184.87" arrivalSpeed="12.77" duration="32.00" routeLength="364.64" waitSteps="0" rerouteNo="2" devices="tripinfo_208001_208001_441 hbefa_208001_208001_441" vType="DEFAULT_VEHTYPE" vaporized="">
        <emissions CO_abs="856.187934" CO2_abs="74715.223930" HC_abs="22.117173" PMx_abs="7.805292" NOx_abs="152.024422" fuel_abs="29.787815"/>
    </tripinfo>
    <tripinfo id="217202_217202_446" depart="27007.00" departLane="-83823403#2_0" departPos="5.10" departSpeed="0.00" departDelay="0.00" arrival="27033.00" arrivalLane="23015533_0" arrivalPos="110.79" arrivalSpeed="13.88" duration="26.00" routeLength="290.56" waitSteps="0" rerouteNo="2" devices="tripinfo_217202_217202_446 hbefa_217202_217202_446" vType="DEFAULT_VEHTYPE" vaporized="">
        <emissions CO_abs="884.693019" CO2_abs="69863.866916" HC_abs="21.286812" PMx_abs="8.089038" NOx_abs="146.137298" fuel_abs="27.853652"/>
    </tripinfo>
    <tripinfo id="146563_146563_416" depart="27004.00" departLane="129833340#2_0" departPos="5.10" departSpeed="0.00" departDelay="4.00" arrival="27034.00" arrivalLane="154755096_0" arrivalPos="66.91" arrivalSpeed="12.60" duration="30.00" routeLength="417.33" waitSteps="0" rerouteNo="4" devices="tripinfo_146563_146563_416 hbefa_146563_146563_416" vType="DEFAULT_VEHTYPE" vaporized="">
        <emissions CO_abs="2236.356178" CO2_abs="138155.338778" HC_abs="45.633576" PMx_abs="17.398183" NOx_abs="304.507645" fuel_abs="55.080455"/>
    </tripinfo>
    <tripinfo id="123467_123467_406" depart="27005.00" departLane="23471158#6_0" departPos="5.10" departSpeed="0.00" departDelay="5.00" arrival="27035.00" arrivalLane="32856811#2_0" arrivalPos="144.91" arrivalSpeed="13.00" duration="30.00" routeLength="453.34" waitSteps="0" rerouteNo="3" devices="tripinfo_123467_123467_406 hbefa_123467_123467_406" vType="DEFAULT_VEHTYPE" vaporized="">
        <emissions CO_abs="1919.679634" CO2_abs="120401.140112" HC_abs="39.527803" PMx_abs="15.079152" NOx_abs="264.783929" fuel_abs="48.002116"/>
    </tripinfo>
    <tripinfo id="103310_103310_397" depart="27000.00" departLane="83703645_0" departPos="5.10" departSpeed="0.00" departDelay="0.00" arrival="27035.00" arrivalLane="23493177#0_0" arrivalPos="166.52" arrivalSpeed="7.19" duration="35.00" routeLength="279.85" waitSteps="0" rerouteNo="5" devices="tripinfo_103310_103310_397 hbefa_103310_103310_397" vType="DEFAULT_VEHTYPE" vaporized="">
        <emissions CO_abs="622.563890" CO2_abs="52614.050256" HC_abs="16.450669" PMx_abs="5.707293" NOx_abs="106.834724" fuel_abs="20.976408"/>
    </tripinfo>
    <tripinfo id="238887_238887_451" depart="27010.00" departLane="-83823403#2_0" departPos="5.10" departSpeed="0.00" departDelay="0.00" arrival="27037.00" arrivalLane="23015533_0" arrivalPos="110.79" arrivalSpeed="13.35" duration="27.00" routeLength="290.56" waitSteps="0" rerouteNo="2" devices="tripinfo_238887_238887_451 hbefa_238887_238887_451" vType="DEFAULT_VEHTYPE" vaporized="">
        <emissions CO_abs="912.843565" CO2_abs="71556.438697" HC_abs="22.132005" PMx_abs="8.162634" NOx_abs="149.198671" fuel_abs="28.528452"/>
    </tripinfo>
    <tripinfo id="154499_154499_420" depart="27000.00" departLane="28542995#0_0" departPos="5.10" departSpeed="0.00" departDelay="0.00" arrival="27038.00" arrivalLane="23493260#4_1" arrivalPos="126.60" arrivalSpeed="13.20" duration="38.00" routeLength="435.19" waitSteps="0" rerouteNo="9" devices="tripinfo_154499_154499_420 hbefa_154499_154499_420" vType="DEFAULT_VEHTYPE" vaporized="">
        <emissions CO_abs="936.324219" CO2_abs="88195.122037" HC_abs="25.469903" PMx_abs="9.043306" NOx_abs="176.954987" fuel_abs="35.162046"/>
    </tripinfo>
    <tripinfo id="113217_113217_402" depart="27007.00" departLane="23493176_0" departPos="5.10" departSpeed="0.00" departDelay="7.00" arrival="27039.00" arrivalLane="154755096_1" arrivalPos="66.91" arrivalSpeed="13.85" duration="32.00" routeLength="214.98" waitSteps="1" rerouteNo="4" devices="tripinfo_113217_113217_402 hbefa_113217_113217_402" vType="DEFAULT_VEHTYPE" vaporized="">
        <emissions CO_abs="761.289084" CO2_abs="66692.322089" HC_abs="20.571766" PMx_abs="7.121447" NOx_abs="134.428033" fuel_abs="26.589198"/>
    </tripinfo>
    <tripinfo id="218769_218769_446" depart="27003.00" departLane="-55940134_0" departPos="5.10" departSpeed="0.00" departDelay="3.00" arrival="27040.00" arrivalLane="-144935692#1_1" arrivalPos="103.61" arrivalSpeed="13.07" duration="37.00" routeLength="447.77" waitSteps="0" rerouteNo="4" devices="tripinfo_218769_218769_446 hbefa_218769_218769_446" vType="DEFAULT_VEHTYPE" vaporized="">
        <emissions CO_abs="646.916595" CO2_abs="75199.578071" HC_abs="19.861010" PMx_abs="6.863611" NOx_abs="145.826858" fuel_abs="29.980930"/>
    </tripinfo>
    <tripinfo id="171544_171544_426" depart="27000.00" departLane="187965762#1_0" departPos="5.10" departSpeed="0.00" departDelay="0.00" arrival="27040.00" arrivalLane="23800191#0_0" arrivalPos="143.94" arrivalSpeed="13.58" duration="40.00" routeLength="368.51" waitSteps="0" rerouteNo="4" devices="tripinfo_171544_171544_426 hbefa_171544_171544_426" vType="DEFAULT_VEHTYPE" vaporized="">
        <emissions CO_abs="655.083333" CO2_abs="70853.635077" HC_abs="20.048264" PMx_abs="6.672456" NOx_abs="137.639367" fuel_abs="28.248258"/>
    </tripinfo>
    <tripinfo id="138122_138122_412" depart="27009.00" departLane="131651824_0" departPos="5.10" departSpeed="0.00" departDelay="9.00" arrival="27040.00" arrivalLane="130875842_0" arrivalPos="81.21" arrivalSpeed="13.33" duration="31.00" routeLength="334.70" waitSteps="0" rerouteNo="3" devices="tripinfo_138122_138122_412 hbefa_138122_138122_412" vType="DEFAULT_VEHTYPE" vaporized="">
        <emissions CO_abs="950.619099" CO2_abs="77360.111463" HC_abs="23.544779" PMx_abs="8.604609" NOx_abs="159.990198" fuel_abs="30.842290"/>
    </tripinfo>
    <tripinfo id="244420_244420_453" depart="27015.00" departLane="-165515969#3_0" departPos="5.10" departSpeed="0.00" departDelay="0.00" arrival="27041.00" arrivalLane="-165511531#0_0" arrivalPos="53.73" arrivalSpeed="13.08" duration="26.00" routeLength="345.81" waitSteps="0" rerouteNo="3" devices="tripinfo_244420_244420_453 hbefa_244420_244420_453" vType="DEFAULT_VEHTYPE" vaporized="">
        <emissions CO_abs="2126.805258" CO2_abs="132041.993186" HC_abs="43.835182" PMx_abs="16.755884" NOx_abs="291.055703" fuel_abs="52.643141"/>
    </tripinfo>
    <tripinfo id="184987_184987_431" depart="27000.00" departLane="-186463490#0_0" departPos="5.10" departSpeed="0.00" departDelay="0.00" arrival="27042.00" arrivalLane="-144935692#1_1" arrivalPos="103.61" arrivalSpeed="13.70" duration="42.00" routeLength="500.46" waitSteps="0" rerouteNo="5" devices="tripinfo_184987_184987_431 hbefa_184987_184987_431" vType="DEFAULT_VEHTYPE" vaporized="">
        <emissions CO_abs="683.832010" CO2_abs="85394.796842" HC_abs="22.213138" PMx_abs="7.413105" NOx_abs="163.565876" fuel_abs="34.045609"/>
    </tripinfo>
    <tripinfo id="211099_211099_442" depart="27013.00" departLane="166155712#0_0" departPos="5.10" departSpeed="0.00" departDelay="0.00" arrival="27042.00" arrivalLane="33469672_0" arrivalPos="142.78" arrivalSpeed="13.65" duration="29.00" routeLength="317.06" waitSteps="0" rerouteNo="2" devices="tripinfo_211099_211099_442 hbefa_211099_211099_442" vType="DEFAULT_VEHTYPE" vaporized="">
        <emissions CO_abs="880.336143" CO2_abs="79352.128957" HC_abs="23.221075" PMx_abs="8.137043" NOx_abs="160.291541" fuel_abs="31.636479"/>
    </tripinfo>
    <tripinfo id="197472_197472_436" depart="27006.00" departLane="23800191#2_0" departPos="5.10" departSpeed="0.00" departDelay="6.00" arrival="27042.00" arrivalLane="130875842_0" arrivalPos="81.21" arrivalSpeed="12.88" duration="36.00" routeLength="373.11" waitSteps="0" rerouteNo="4" devices="tripinfo_197472_197472_436 hbefa_197472_197472_436" vType="DEFAULT_VEHTYPE" vaporized="">
        <emissions CO_abs="849.589504" CO2_abs="84536.231611" HC_abs="24.094151" PMx_abs="8.230489" NOx_abs="167.356169" fuel_abs="33.703303"/>
    </tripinfo>
    <tripinfo id="224931_224931_449" depart="27026.00" departLane="-28523795_0" departPos="5.10" departSpeed="0.00" departDelay="0.00" arrival="27043.00" arrivalLane="-28523795_0" arrivalPos="192.02" arrivalSpeed="13.18" duration="17.00" routeLength="186.92" waitSteps="0" rerouteNo="1" devices="tripinfo_224931_224931_449 hbefa_224931_224931_449" vType="DEFAULT_VEHTYPE" vaporized="">
        <emissions CO_abs="479.116454" CO2_abs="42992.034567" HC_abs="12.665663" PMx_abs="4.561181" NOx_abs="87.076901" fuel_abs="17.140266"/>
    </tripinfo>
    <tripinfo id="245947_245947_454" depart="27016.00" departLane="-83823403#2_0" departPos="5.10" departSpeed="0.00" departDelay="0.00" arrival="27043.00" arrivalLane="23015533_0" arrivalPos="110.79" arrivalSpeed="12.77" duration="27.00" routeLength="290.56" waitSteps="0" rerouteNo="2" devices="tripinfo_245947_245947_454 hbefa_245947_245947_454" vType="DEFAULT_VEHTYPE" vaporized="">
        <emissions CO_abs="876.468103" CO2_abs="72973.310165" HC_abs="21.961676" PMx_abs="7.992027" NOx_abs="150.250147" fuel_abs="29.093340"/>
    </tripinfo>
    <tripinfo id="212327_212327_442" depart="27014.00" departLane="198147972_0" departPos="5.10" departSpeed="0.00" departDelay="0.00" arrival="27043.00" arrivalLane="4353628#1_0" arrivalPos="68.95" arrivalSpeed="12.65" duration="29.00" routeLength="339.08" waitSteps="0" rerouteNo="4" devices="tripinfo_212327_212327_442 hbefa_212327_212327_442" vType="DEFAULT_VEHTYPE" vaporized="">
        <emissions CO_abs="583.914121" CO2_abs="60913.072928" HC_abs="16.752268" PMx_abs="5.978031" NOx_abs="120.352394" fuel_abs="24.285115"/>
    </tripinfo>
    <tripinfo id="192246_192246_435" depart="27018.00" departLane="2511537#2_0" departPos="5.10" departSpeed="0.00" departDelay="18.00" arrival="27044.00" arrivalLane="2511537#2_0" arrivalPos="191.15" arrivalSpeed="7.96" duration="26.00" routeLength="186.05" waitSteps="0" rerouteNo="1" devices="tripinfo_192246_192246_435 hbefa_192246_192246_435" vType="DEFAULT_VEHTYPE" vaporized="">
        <emissions CO_abs="316.264780" CO2_abs="37444.158468" HC_abs="10.969860" PMx_abs="3.270186" NOx_abs="70.292256" fuel_abs="14.928407"/>
    </tripinfo>
    <tripinfo id="100594_100594_396" depart="27000.00" departLane="36454807#3-AddedOnRampEdge_0" departPos="5.10" departSpeed="0.00" departDelay="0.00" arrival="27044.00" arrivalLane="23471158#9_0" arrivalPos="213.75" arrivalSpeed="27.33" duration="44.00" routeLength="496.50" waitSteps="6" rerouteNo="0" devices="tripinfo_100594_100594_396 hbefa_100594_100594_396" vType="DEFAULT_VEHTYPE" vaporized="">
        <emissions CO_abs="2823.151079" CO2_abs="177691.435156" HC_abs="57.980403" PMx_abs="21.681693" NOx_abs="388.716778" fuel_abs="70.842924"/>
    </tripinfo>
    <tripinfo id="95606_95606_394" depart="27000.00" departLane="8225148_0" departPos="5.10" departSpeed="0.00" departDelay="0.00" arrival="27045.00" arrivalLane="145261451_0" arrivalPos="86.92" arrivalSpeed="13.46" duration="45.00" routeLength="515.94" waitSteps="0" rerouteNo="11" devices="tripinfo_95606_95606_394 hbefa_95606_95606_394" vType="DEFAULT_VEHTYPE" vaporized="">
        <emissions CO_abs="1262.188684" CO2_abs="113480.775246" HC_abs="32.737356" PMx_abs="12.178302" NOx_abs="231.172499" fuel_abs="45.243052"/>
    </tripinfo>
    <tripinfo id="101768_101768_396" depart="27000.00" departLane="23493181#0_0" departPos="5.10" departSpeed="0.00" departDelay="0.00" arrival="27045.00" arrivalLane="122989592#2_1" arrivalPos="74.34" arrivalSpeed="7.61" duration="45.00" routeLength="323.96" waitSteps="0" rerouteNo="3" devices="tripinfo_101768_101768_396 hbefa_101768_101768_396" vType="DEFAULT_VEHTYPE" vaporized="">
        <emissions CO_abs="683.415549" CO2_abs="66245.484404" HC_abs="20.175221" PMx_abs="6.489833" NOx_abs="129.732350" fuel_abs="26.411051"/>
    </tripinfo>
    <tripinfo id="101376_101376_396" depart="27003.00" departLane="23471158#0_0" departPos="5.10" departSpeed="0.00" departDelay="3.00" arrival="27046.00" arrivalLane="32856811#2_0" arrivalPos="144.91" arrivalSpeed="12.95" duration="43.00" routeLength="664.02" waitSteps="0" rerouteNo="7" devices="tripinfo_101376_101376_396 hbefa_101376_101376_396" vType="DEFAULT_VEHTYPE" vaporized="">
        <emissions CO_abs="3141.142652" CO2_abs="195539.176593" HC_abs="63.576840" PMx_abs="24.730290" NOx_abs="432.104157" fuel_abs="77.958533"/>
    </tripinfo>
    <tripinfo id="244003_244003_453" depart="27029.00" departLane="-28523795_0" departPos="5.10" departSpeed="0.00" departDelay="0.00" arrival="27046.00" arrivalLane="-28523795_0" arrivalPos="192.02" arrivalSpeed="13.61" duration="17.00" routeLength="186.92" waitSteps="0" rerouteNo="1" devices="tripinfo_244003_244003_453 hbefa_244003_244003_453" vType="DEFAULT_VEHTYPE" vaporized="">