<?xml version="1.0" encoding="UTF-8"?>

<!-- generated on Tue Apr 29 10:51:09 2014 by SUMO sumo Version 0.19.0
<?xml version="1.0" encoding="UTF-8"?>

<configuration xmlns:xsi="http://www.w3.org/2001/XMLSchema-instance" xsi:noNamespaceSchemaLocation="http://sumo-sim.org/xsd/sumoConfiguration.xsd">

    <input>
        <net-file value="data/map.net.xml"/>
        <route-files value="data/map.rou.xml"/>
    </input>

    <output>
        <tripinfo-output value="data/maptripinfo.out.xml"/>
        <save-state.prefix value="data/state"/>
    </output>

    <time>
        <begin value="27000"/>
        <end value="27900"/>
    </time>

    <processing>
        <route-steps value="200"/>
        <scale value="0.8"/>
        <time-to-teleport value="300"/>
        <lanechange.allow-swap value="true"/>
    </processing>

    <report>
        <verbose value="true"/>
        <no-warnings value="true"/>
        <no-step-log value="true"/>
    </report>

    <emissions>
        <device.hbefa.probability value="1"/>
    </emissions>

    <traci_server>
        <remote-port value="8814"/>
    </traci_server>

</configuration>
-->

<tripinfos>
    <tripinfo id="136022_136022_411" depart="27003.00" departLane="23800191#2_0" departPos="5.10" departSpeed="0.00" departDelay="3.00" arrival="27009.00" arrivalLane="23800191#2_0" arrivalPos="38.41" arrivalSpeed="11.39" duration="6.00" routeLength="33.31" waitSteps="0" rerouteNo="1" devices="tripinfo_136022_136022_411 hbefa_136022_136022_411" vType="DEFAULT_VEHTYPE" vaporized="">
        <emissions CO_abs="335.079197" CO2_abs="22612.786956" HC_abs="7.799778" PMx_abs="2.808915" NOx_abs="48.200937" fuel_abs="9.015367"/>
    </tripinfo>
    <tripinfo id="182087_182087_431" depart="27000.00" departLane="4380937#2_0" departPos="5.10" departSpeed="0.00" departDelay="0.00" arrival="27011.00" arrivalLane="4380937#3_0" arrivalPos="72.76" arrivalSpeed="13.62" duration="11.00" routeLength="67.66" waitSteps="0" rerouteNo="3" devices="tripinfo_182087_182087_431 hbefa_182087_182087_431" vType="DEFAULT_VEHTYPE" vaporized="">
        <emissions CO_abs="397.009849" CO2_abs="36564.308994" HC_abs="10.827994" PMx_abs="3.758498" NOx_abs="73.267336" fuel_abs="14.577629"/>
    </tripinfo>
    <tripinfo id="105435_105435_398" depart="27003.00" departLane="145474196#1_0" departPos="5.10" departSpeed="0.00" departDelay="3.00" arrival="27014.00" arrivalLane="145474196#1_0" arrivalPos="94.12" arrivalSpeed="12.65" duration="11.00" routeLength="89.02" waitSteps="0" rerouteNo="2" devices="tripinfo_105435_105435_398 hbefa_105435_105435_398" vType="DEFAULT_VEHTYPE" vaporized="">
        <emissions CO_abs="552.298479" CO2_abs="39106.350456" HC_abs="12.794645" PMx_abs="4.754918" NOx_abs="83.185063" fuel_abs="15.591098"/>
    </tripinfo>
    <tripinfo id="72912_72912_384" depart="27003.00" departLane="9207803_0" departPos="5.10" departSpeed="0.00" departDelay="3.00" arrival="27014.00" arrivalLane="9207803_0" arrivalPos="69.23" arrivalSpeed="7.30" duration="11.00" routeLength="64.13" waitSteps="0" rerouteNo="2" devices="tripinfo_72912_72912_384 hbefa_72912_72912_384" vType="DEFAULT_VEHTYPE" vaporized="">
        <emissions CO_abs="275.891682" CO2_abs="22895.738258" HC_abs="7.399734" PMx_abs="2.542310" NOx_abs="46.294600" fuel_abs="9.128175"/>
    </tripinfo>
    <tripinfo id="92380_92380_392" depart="27000.00" departLane="-154755073#3_0" departPos="5.10" departSpeed="0.00" departDelay="0.00" arrival="27015.00" arrivalLane="-154755073#3_0" arrivalPos="102.52" arrivalSpeed="7.83" duration="15.00" routeLength="97.42" waitSteps="0" rerouteNo="3" devices="tripinfo_92380_92380_392 hbefa_92380_92380_392" vType="DEFAULT_VEHTYPE" vaporized="">
        <emissions CO_abs="181.093734" CO2_abs="20216.981178" HC_abs="6.117502" PMx_abs="1.814228" NOx_abs="38.096051" fuel_abs="8.060197"/>
    </tripinfo>
    <tripinfo id="251564_251564_457" depart="27002.00" departLane="51113317_0" departPos="5.10" departSpeed="0.00" departDelay="0.00" arrival="27015.00" arrivalLane="51113317_0" arrivalPos="125.08" arrivalSpeed="13.26" duration="13.00" routeLength="119.98" waitSteps="0" rerouteNo="2" devices="tripinfo_251564_251564_457 hbefa_251564_251564_457" vType="DEFAULT_VEHTYPE" vaporized="">
        <emissions CO_abs="533.556986" CO2_abs="37837.578847" HC_abs="12.385875" PMx_abs="4.627190" NOx_abs="80.471976" fuel_abs="15.085259"/>
    </tripinfo>
    <tripinfo id="105964_105964_399" depart="27006.00" departLane="145474196#1_0" departPos="5.10" departSpeed="0.00" departDelay="6.00" arrival="27016.00" arrivalLane="145474196#1_0" arrivalPos="94.12" arrivalSpeed="13.13" duration="10.00" routeLength="89.02" waitSteps="0" rerouteNo="2" devices="tripinfo_105964_105964_399 hbefa_105964_105964_399" vType="DEFAULT_VEHTYPE" vaporized="">
        <emissions CO_abs="457.510896" CO2_abs="35277.371637" HC_abs="11.159418" PMx_abs="4.043758" NOx_abs="73.490774" fuel_abs="14.064545"/>
    </tripinfo>
    <tripinfo id="84049_84049_390" depart="27006.00" departLane="9207803_0" departPos="5.10" departSpeed="0.00" departDelay="6.00" arrival="27017.00" arrivalLane="9207803_0" arrivalPos="69.23" arrivalSpeed="8.23" duration="11.00" routeLength="64.13" waitSteps="0" rerouteNo="2" devices="tripinfo_84049_84049_390 hbefa_84049_84049_390" vType="DEFAULT_VEHTYPE" vaporized="">
        <emissions CO_abs="150.590980" CO2_abs="17196.041905" HC_abs="5.288812" PMx_abs="1.476992" NOx_abs="32.098030" fuel_abs="6.855795"/>
    </tripinfo>
    <tripinfo id="232041_232041_451" depart="27002.00" departLane="28523795_0" departPos="5.10" departSpeed="0.00" departDelay="0.00" arrival="27020.00" arrivalLane="28523795_0" arrivalPos="192.02" arrivalSpeed="13.86" duration="18.00" routeLength="186.92" waitSteps="0" rerouteNo="3" devices="tripinfo_232041_232041_451 hbefa_232041_232041_451" vType="DEFAULT_VEHTYPE" vaporized="">
        <emissions CO_abs="546.389209" CO2_abs="49626.784956" HC_abs="14.529575" PMx_abs="5.288412" NOx_abs="100.450661" fuel_abs="19.785440"/>
    </tripinfo>
    <tripinfo id="135880_135880_411" depart="27000.00" departLane="150039002#2_0" departPos="5.10" departSpeed="0.00" departDelay="0.00" arrival="27022.00" arrivalLane="150039002#2_0" arrivalPos="249.40" arrivalSpeed="13.52" duration="22.00" routeLength="244.30" waitSteps="0" rerouteNo="5" devices="tripinfo_135880_135880_411 hbefa_135880_135880_411" vType="DEFAULT_VEHTYPE" vaporized="">
        <emissions CO_abs="508.231432" CO2_abs="48589.680978" HC_abs="14.008870" PMx_abs="4.845113" NOx_abs="96.926419" fuel_abs="19.371963"/>
    </tripinfo>
    <tripinfo id="219187_219187_446" depart="27000.00" departLane="144935690_0" departPos="5.10" departSpeed="0.00" departDelay="0.00" arrival="27022.00" arrivalLane="25997632_0" arrivalPos="136.14" arrivalSpeed="13.03" duration="22.00" routeLength="131.04" waitSteps="0" rerouteNo="5" devices="tripinfo_219187_219187_446 hbefa_219187_219187_446" vType="DEFAULT_VEHTYPE" vaporized="">
        <emissions CO_abs="481.598265" CO2_abs="51167.922295" HC_abs="14.121263" PMx_abs="4.999066" NOx_abs="100.539470" fuel_abs="20.399871"/>
    </tripinfo>
    <tripinfo id="75851_75851_386" depart="27002.00" departLane="28542995#2_0" departPos="5.10" departSpeed="0.00" departDelay="2.00" arrival="27023.00" arrivalLane="23493181#0_0" arrivalPos="88.20" arrivalSpeed="5.49" duration="21.00" routeLength="83.10" waitSteps="0" rerouteNo="4" devices="tripinfo_75851_75851_386 hbefa_75851_75851_386" vType="DEFAULT_VEHTYPE" vaporized="">
        <emissions CO_abs="680.425400" CO2_abs="42894.125630" HC_abs="15.032908" PMx_abs="5.725085" NOx_abs="93.650734" fuel_abs="17.101221"/>
    </tripinfo>
    <tripinfo id="206737_206737_440" depart="27007.00" departLane="-29206900_0" departPos="5.10" departSpeed="0.00" departDelay="0.00" arrival="27023.00" arrivalLane="29207110_0" arrivalPos="28.94" arrivalSpeed="13.71" duration="16.00" routeLength="23.84" waitSteps="0" rerouteNo="3" devices="tripinfo_206737_206737_440 hbefa_206737_206737_440" vType="DEFAULT_VEHTYPE" vaporized="">
        <emissions CO_abs="642.489338" CO2_abs="46399.760448" HC_abs="15.304396" PMx_abs="5.596619" NOx_abs="97.866506" fuel_abs="18.498865"/>
    </tripinfo>
    <tripinfo id="110327_110327_401" depart="27000.00" departLane="53212166#0_0" departPos="5.10" departSpeed="0.00" departDelay="0.00" arrival="27024.00" arrivalLane="28542995#2_2" arrivalPos="61.74" arrivalSpeed="13.63" duration="24.00" routeLength="56.64" waitSteps="0" rerouteNo="5" devices="tripinfo_110327_110327_401 hbefa_110327_110327_401" vType="DEFAULT_VEHTYPE" vaporized="">
        <emissions CO_abs="622.791839" CO2_abs="52074.581548" HC_abs="15.933444" PMx_abs="5.662777" NOx_abs="106.605247" fuel_abs="20.761334"/>
    </tripinfo>
    <tripinfo id="225242_225242_449" depart="27000.00" departLane="154755124_0" departPos="5.10" departSpeed="0.00" departDelay="0.00" arrival="27024.00" arrivalLane="4380937#3_1" arrivalPos="72.76" arrivalSpeed="13.16" duration="24.00" routeLength="67.66" waitSteps="0" rerouteNo="5" devices="tripinfo_225242_225242_449 hbefa_225242_225242_449" vType="DEFAULT_VEHTYPE" vaporized="">
        <emissions CO_abs="575.158304" CO2_abs="52692.734915" HC_abs="16.012089" PMx_abs="5.390101" NOx_abs="105.095851" fuel_abs="21.007781"/>
    </tripinfo>
    <tripinfo id="148867_148867_417" depart="27006.00" departLane="3065455_0" departPos="5.10" departSpeed="0.00" departDelay="6.00" arrival="27024.00" arrivalLane="23800191#0_0" arrivalPos="143.94" arrivalSpeed="12.79" duration="18.00" routeLength="138.84" waitSteps="0" rerouteNo="3" devices="tripinfo_148867_148867_417 hbefa_148867_148867_417" vType="DEFAULT_VEHTYPE" vaporized="">
        <emissions CO_abs="576.247789" CO2_abs="49118.085368" HC_abs="14.762428" PMx_abs="5.267964" NOx_abs="100.358490" fuel_abs="19.582629"/>
    </tripinfo>
    <tripinfo id="141415_141415_415" depart="27003.00" departLane="150039002#2_0" departPos="5.10" departSpeed="0.00" departDelay="3.00" arrival="27025.00" arrivalLane="150039002#2_0" arrivalPos="249.40" arrivalSpeed="12.91" duration="22.00" routeLength="244.30" waitSteps="0" rerouteNo="4" devices="tripinfo_141415_141415_415 hbefa_141415_141415_415" vType="DEFAULT_VEHTYPE" vaporized="">
        <emissions CO_abs="584.363208" CO2_abs="52500.524082" HC_abs="15.340860" PMx_abs="5.510012" NOx_abs="106.440291" fuel_abs="20.931157"/>
    </tripinfo>
    <tripinfo id="225541_225541_450" depart="27000.00" departLane="9207803_0" departPos="5.10" departSpeed="0.00" departDelay="0.00" arrival="27025.00" arrivalLane="154755073#3_0" arrivalPos="102.52" arrivalSpeed="7.66" duration="25.00" routeLength="97.42" waitSteps="0" rerouteNo="5" devices="tripinfo_225541_225541_450 hbefa_225541_225541_450" vType="DEFAULT_VEHTYPE" vaporized="">
        <emissions CO_abs="364.065516" CO2_abs="39483.437245" HC_abs="11.811198" PMx_abs="3.689228" NOx_abs="75.539650" fuel_abs="15.741435"/>
    </tripinfo>
    <tripinfo id="136596_136596_411" depart="27003.00" departLane="131651824_0" departPos="5.10" departSpeed="0.00" departDelay="3.00" arrival="27027.00" arrivalLane="4400211#0_0" arrivalPos="197.56" arrivalSpeed="11.75" duration="24.00" routeLength="192.46" waitSteps="0" rerouteNo="5" devices="tripinfo_136596_136596_411 hbefa_136596_136596_411" vType="DEFAULT_VEHTYPE" vaporized="">
        <emissions CO_abs="633.334432" CO2_abs="57833.659361" HC_abs="16.864902" PMx_abs="6.050920" NOx_abs="116.775287" fuel_abs="23.057395"/>
    </tripinfo>
    <tripinfo id="68737_68737_381" depart="27016.00" departLane="23493176_0" departPos="5.10" departSpeed="0.00" departDelay="16.00" arrival="27028.00" arrivalLane="23493176_0" arrivalPos="83.31" arrivalSpeed="7.58" duration="12.00" routeLength="78.21" waitSteps="0" rerouteNo="2" devices="tripinfo_68737_68737_381 hbefa_68737_68737_381" vType="DEFAULT_VEHTYPE" vaporized="">
        <emissions CO_abs="178.313761" CO2_abs="18939.249860" HC_abs="5.790684" PMx_abs="1.779713" NOx_abs="36.223614" fuel_abs="7.550785"/>
    </tripinfo>
    <tripinfo id="134089_134089_411" depart="27000.00" departLane="23800191#2_0" departPos="5.10" departSpeed="0.00" departDelay="0.00" arrival="27028.00" arrivalLane="4400211#0_0" arrivalPos="197.56" arrivalSpeed="12.34" duration="28.00" routeLength="192.46" waitSteps="0" rerouteNo="6" devices="tripinfo_134089_134089_411 hbefa_134089_134089_411" vType="DEFAULT_VEHTYPE" vaporized="">
        <emissions CO_abs="801.048700" CO2_abs="66076.291739" HC_abs="20.079338" PMx_abs="7.355652" NOx_abs="136.131160" fuel_abs="26.343602"/>
    </tripinfo>
    <tripinfo id="220353_220353_447" depart="27001.00" departLane="-165515969#3_0" departPos="5.10" departSpeed="0.00" departDelay="0.00" arrival="27028.00" arrivalLane="-165511531#0_0" arrivalPos="53.73" arrivalSpeed="12.80" duration="27.00" routeLength="48.63" waitSteps="0" rerouteNo="5" devices="tripinfo_220353_220353_447 hbefa_220353_220353_447" vType="DEFAULT_VEHTYPE" vaporized="">
        <emissions CO_abs="1939.547251" CO2_abs="123488.742503" HC_abs="40.629743" PMx_abs="15.537154" NOx_abs="270.603787" fuel_abs="49.233087"/>
    </tripinfo>
    <tripinfo id="118681_118681_405" depart="27000.00" departLane="23471158#6_0" departPos="5.10" departSpeed="0.00" departDelay="0.00" arrival="27030.00" arrivalLane="32856811#2_0" arrivalPos="144.91" arrivalSpeed="13.80" duration="30.00" routeLength="139.81" waitSteps="0" rerouteNo="6" devices="tripinfo_118681_118681_405 hbefa_118681_118681_405" vType="DEFAULT_VEHTYPE" vaporized="">
        <emissions CO_abs="2199.869103" CO2_abs="138999.034648" HC_abs="45.072365" PMx_abs="17.242066" NOx_abs="305.080212" fuel_abs="55.416830"/>
    </tripinfo>
    <tripinfo id="188835_188835_434" depart="27005.00" departLane="187965762#1_0" departPos="5.10" departSpeed="0.00" departDelay="5.00" arrival="27030.00" arrivalLane="187965762#2_0" arrivalPos="85.18" arrivalSpeed="7.17" duration="25.00" routeLength="80.08" waitSteps="1" rerouteNo="5" devices="tripinfo_188835_188835_434 hbefa_188835_188835_434" vType="DEFAULT_VEHTYPE" vaporized="">
        <emissions CO_abs="211.796443" CO2_abs="29985.115494" HC_abs="8.592494" PMx_abs="2.495543" NOx_abs="54.555491" fuel_abs="11.954602"/>
    </tripinfo>
    <tripinfo id="122617_122617_406" depart="27000.00" departLane="131651824_0" departPos="5.10" departSpeed="0.00" departDelay="0.00" arrival="27031.00" arrivalLane="130875842_0" arrivalPos="81.21" arrivalSpeed="13.21" duration="31.00" routeLength="76.11" waitSteps="0" rerouteNo="7" devices="tripinfo_122617_122617_406 hbefa_122617_122617_406" vType="DEFAULT_VEHTYPE" vaporized="">
        <emissions CO_abs="1007.949200" CO2_abs="77417.529129" HC_abs="24.157709" PMx_abs="8.907147" NOx_abs="162.065712" fuel_abs="30.865179"/>
    </tripinfo>
    <tripinfo id="103637_103637_397" depart="27000.00" departLane="145474196#1_0" departPos="5.10" departSpeed="0.00" departDelay="0.00" arrival="27032.00" arrivalLane="150039002#2_1" arrivalPos="249.40" arrivalSpeed="13.41" duration="32.00" routeLength="244.30" waitSteps="0" rerouteNo="7" devices="tripinfo_103637_103637_397 hbefa_103637_103637_397" vType="DEFAULT_VEHTYPE" vaporized="">
        <emissions CO_abs="973.036577" CO2_abs="83363.217091" HC_abs="24.635343" PMx_abs="9.155330" NOx_abs="171.120723" fuel_abs="33.235639"/>
    </tripinfo>
    <tripinfo id="187318_187318_433" depart="27013.00" departLane="-83823403#2_0" departPos="5.10" departSpeed="0.00" departDelay="0.00" arrival="27033.00" arrivalLane="-83823403#2_0" arrivalPos="184.87" arrivalSpeed="8.32" duration="20.00" routeLength="179.77" waitSteps="0" rerouteNo="4" devices="tripinfo_187318_187318_433 hbefa_187318_187318_433" vType="DEFAULT_VEHTYPE" vaporized="">
        <emissions CO_abs="638.451271" CO2_abs="49792.079610" HC_abs="15.671929" PMx_abs="5.747852" NOx_abs="103.615358" fuel_abs="19.851335"/>
    </tripinfo>
    <tripinfo id="212444_212444_443" depart="27003.00" departLane="166155712#0_0" departPos="5.10" departSpeed="0.00" departDelay="0.00" arrival="27033.00" arrivalLane="33469672_0" arrivalPos="142.78" arrivalSpeed="13.79" duration="30.00" routeLength="137.68" waitSteps="0" rerouteNo="6" devices="tripinfo_212444_212444_443 hbefa_212444_212444_443" vType="DEFAULT_VEHTYPE" vaporized="">
        <emissions CO_abs="930.495078" CO2_abs="76307.889585" HC_abs="23.108254" PMx_abs="8.617378" NOx_abs="157.940281" fuel_abs="30.422785"/>
    </tripinfo>
    <tripinfo id="162999_162999_422" depart="27000.00" departLane="150031230#2_0" departPos="5.10" departSpeed="0.00" departDelay="0.00" arrival="27034.00" arrivalLane="129833341#0_1" arrivalPos="129.85" arrivalSpeed="13.06" duration="34.00" routeLength="124.75" waitSteps="0" rerouteNo="7" devices="tripinfo_162999_162999_422 hbefa_162999_162999_422" vType="DEFAULT_VEHTYPE" vaporized="">
        <emissions CO_abs="1001.131929" CO2_abs="81589.827086" HC_abs="25.152376" PMx_abs="9.108656" NOx_abs="168.081811" fuel_abs="32.528611"/>
    </tripinfo>
    <tripinfo id="146563_146563_416" depart="27004.00" departLane="129833340#2_0" departPos="5.10" departSpeed="0.00" departDelay="4.00" arrival="27035.00" arrivalLane="154755096_1" arrivalPos="66.91" arrivalSpeed="13.69" duration="31.00" routeLength="187.42" waitSteps="0" rerouteNo="6" devices="tripinfo_146563_146563_416 hbefa_146563_146563_416" vType="DEFAULT_VEHTYPE" vaporized="">
        <emissions CO_abs="2353.963487" CO2_abs="146452.691696" HC_abs="48.755034" PMx_abs="18.546045" NOx_abs="322.303411" fuel_abs="58.388466"/>
    </tripinfo>
    <tripinfo id="144652_144652_416" depart="27000.00" departLane="3065455_0" departPos="5.10" departSpeed="0.00" departDelay="0.00" arrival="27035.00" arrivalLane="130659365_0" arrivalPos="223.21" arrivalSpeed="8.05" duration="35.00" routeLength="218.11" waitSteps="0" rerouteNo="7" devices="tripinfo_144652_144652_416 hbefa_144652_144652_416" vType="DEFAULT_VEHTYPE" vaporized="">
        <emissions CO_abs="775.853406" CO2_abs="74235.035276" HC_abs="21.362799" PMx_abs="7.401909" NOx_abs="148.232681" fuel_abs="29.596373"/>
    </tripinfo>
    <tripinfo id="208001_208001_441" depart="27001.00" departLane="-83823403#2_0" departPos="5.10" departSpeed="0.00" departDelay="0.00" arrival="27035.00" arrivalLane="23015529#0_0" arrivalPos="184.87" arrivalSpeed="13.56" duration="34.00" routeLength="179.77" waitSteps="0" rerouteNo="6" devices="tripinfo_208001_208001_441 hbefa_208001_208001_441" vType="DEFAULT_VEHTYPE" vaporized="">
        <emissions CO_abs="938.872526" CO2_abs="82877.538281" HC_abs="24.428798" PMx_abs="8.864126" NOx_abs="168.686739" fuel_abs="33.042006"/>
    </tripinfo>
    <tripinfo id="123467_123467_406" depart="27006.00" departLane="23471158#6_0" departPos="5.10" departSpeed="0.00" departDelay="6.00" arrival="27036.00" arrivalLane="32856811#2_0" arrivalPos="144.91" arrivalSpeed="13.63" duration="30.00" routeLength="139.81" waitSteps="0" rerouteNo="6" devices="tripinfo_123467_123467_406 hbefa_123467_123467_406" vType="DEFAULT_VEHTYPE" vaporized="">
        <emissions CO_abs="2015.718066" CO2_abs="126356.744790" HC_abs="41.279840" PMx_abs="15.699815" NOx_abs="277.670275" fuel_abs="50.376536"/>
    </tripinfo>
    <tripinfo id="217202_217202_446" depart="27007.00" departLane="-83823403#2_0" departPos="5.10" departSpeed="0.00" departDelay="0.00" arrival="27036.00" arrivalLane="23015533_0" arrivalPos="110.79" arrivalSpeed="13.29" duration="29.00" routeLength="105.69" waitSteps="0" rerouteNo="6" devices="tripinfo_217202_217202_446 hbefa_217202_217202_446" vType="DEFAULT_VEHTYPE" vaporized="">
        <emissions CO_abs="907.197471" CO2_abs="71018.326888" HC_abs="22.076148" PMx_abs="8.007993" NOx_abs="147.785186" fuel_abs="28.313915"/>
    </tripinfo>
    <tripinfo id="103310_103310_397" depart="27000.00" departLane="83703645_0" departPos="5.10" departSpeed="0.00" departDelay="0.00" arrival="27037.00" arrivalLane="23493177#0_1" arrivalPos="166.52" arrivalSpeed="7.76" duration="37.00" routeLength="161.42" waitSteps="0" rerouteNo="8" devices="tripinfo_103310_103310_397 hbefa_103310_103310_397" vType="DEFAULT_VEHTYPE" vaporized="">
        <emissions CO_abs="514.792905" CO2_abs="56935.189061" HC_abs="16.686961" PMx_abs="5.206701" NOx_abs="108.887055" fuel_abs="22.699180"/>
    </tripinfo>
    <tripinfo id="113217_113217_402" depart="27007.00" departLane="23493176_0" departPos="5.10" departSpeed="0.00" departDelay="7.00" arrival="27039.00" arrivalLane="154755096_1" arrivalPos="66.91" arrivalSpeed="13.69" duration="32.00" routeLength="61.81" waitSteps="0" rerouteNo="6" devices="tripinfo_113217_113217_402 hbefa_113217_113217_402" vType="DEFAULT_VEHTYPE" vaporized="">
        <emissions CO_abs="713.736144" CO2_abs="65935.182214" HC_abs="20.364230" PMx_abs="6.658778" NOx_abs="130.494208" fuel_abs="26.287337"/>
    </tripinfo>
    <tripinfo id="238887_238887_451" depart="27010.00" departLane="-83823403#2_0" departPos="5.10" departSpeed="0.00" departDelay="0.00" arrival="27040.00" arrivalLane="23015533_0" arrivalPos="110.79" arrivalSpeed="13.33" duration="30.00" routeLength="105.69" waitSteps="0" rerouteNo="6" devices="tripinfo_238887_238887_451 hbefa_238887_238887_451" vType="DEFAULT_VEHTYPE" vaporized="">
        <emissions CO_abs="938.072706" CO2_abs="80914.587831" HC_abs="24.339802" PMx_abs="8.595201" NOx_abs="164.606506" fuel_abs="32.259404"/>
    </tripinfo>
    <tripinfo id="171544_171544_426" depart="27000.00" departLane="187965762#1_0" departPos="5.10" departSpeed="0.00" departDelay="0.00" arrival="27040.00" arrivalLane="23800191#0_0" arrivalPos="143.94" arrivalSpeed="13.21" duration="40.00" routeLength="138.84" waitSteps="0" rerouteNo="8" devices="tripinfo_171544_171544_426 hbefa_171544_171544_426" vType="DEFAULT_VEHTYPE" vaporized="">
        <emissions CO_abs="686.918637" CO2_abs="70182.704212" HC_abs="20.179527" PMx_abs="6.932828" NOx_abs="138.051819" fuel_abs="27.980767"/>
    </tripinfo>
    <tripinfo id="218769_218769_446" depart="27003.00" departLane="-55940134_0" departPos="5.10" departSpeed="0.00" departDelay="3.00" arrival="27041.00" arrivalLane="-144935692#1_1" arrivalPos="103.61" arrivalSpeed="13.04" duration="38.00" routeLength="98.51" waitSteps="0" rerouteNo="8" devices="tripinfo_218769_218769_446 hbefa_218769_218769_446" vType="DEFAULT_VEHTYPE" vaporized="">
        <emissions CO_abs="601.808854" CO2_abs="72102.210764" HC_abs="19.000047" PMx_abs="6.507499" NOx_abs="139.059522" fuel_abs="28.746057"/>
    </tripinfo>
    <tripinfo id="104726_104726_398" depart="27000.00" departLane="23471158#5_0" departPos="5.10" departSpeed="0.00" departDelay="0.00" arrival="27041.00" arrivalLane="32856811#2_1" arrivalPos="144.91" arrivalSpeed="13.33" duration="41.00" routeLength="139.81" waitSteps="0" rerouteNo="9" devices="tripinfo_104726_104726_398 hbefa_104726_104726_398" vType="DEFAULT_VEHTYPE" vaporized="">
        <emissions CO_abs="1328.045256" CO2_abs="109525.375047" HC_abs="32.900783" PMx_abs="12.171141" NOx_abs="226.292478" fuel_abs="43.666093"/>
    </tripinfo>
    <tripinfo id="244420_244420_453" depart="27015.00" departLane="-165515969#3_0" departPos="5.10" departSpeed="0.00" departDelay="0.00" arrival="27041.00" arrivalLane="-165511531#0_0" arrivalPos="53.73" arrivalSpeed="13.03" duration="26.00" routeLength="48.63" waitSteps="0" rerouteNo="6" devices="tripinfo_244420_244420_453 hbefa_244420_244420_453" vType="DEFAULT_VEHTYPE" vaporized="">
        <emissions CO_abs="2376.670643" CO2_abs="137456.911766" HC_abs="47.082047" PMx_abs="18.970625" NOx_abs="310.368799" fuel_abs="54.801978"/>
    </tripinfo>
    <tripinfo id="138122_138122_412" depart="27009.00" departLane="131651824_0" departPos="5.10" departSpeed="0.00" departDelay="9.00" arrival="27042.00" arrivalLane="130875842_0" arrivalPos="81.21" arrivalSpeed="12.74" duration="33.00" routeLength="76.11" waitSteps="0" rerouteNo="7" devices="tripinfo_138122_138122_412 hbefa_138122_138122_412" vType="DEFAULT_VEHTYPE" vaporized="">
        <emissions CO_abs="765.188308" CO2_abs="73956.612951" HC_abs="21.356847" PMx_abs="7.380100" NOx_abs="147.131313" fuel_abs="29.485369"/>
    </tripinfo>
    <tripinfo id="184987_184987_431" depart="27000.00" departLane="-186463490#0_0" departPos="5.10" departSpeed="0.00" departDelay="0.00" arrival="27043.00" arrivalLane="-144935692#1_1" arrivalPos="103.61" arrivalSpeed="12.72" duration="43.00" routeLength="98.51" waitSteps="0" rerouteNo="9" devices="tripinfo_184987_184987_431 hbefa_184987_184987_431" vType="DEFAULT_VEHTYPE" vaporized="">
        <emissions CO_abs="657.001369" CO2_abs="90333.861583" HC_abs="22.862491" PMx_abs="7.483072" NOx_abs="170.573252" fuel_abs="36.014742"/>
    </tripinfo>
    <tripinfo id="211099_211099_442" depart="27013.00" departLane="166155712#0_0" departPos="5.10" departSpeed="0.00" departDelay="0.00" arrival="27043.00" arrivalLane="33469672_0" arrivalPos="142.78" arrivalSpeed="13.27" duration="30.00" routeLength="137.68" waitSteps="0" rerouteNo="6" devices="tripinfo_211099_211099_442 hbefa_211099_211099_442" vType="DEFAULT_VEHTYPE" vaporized="">
        <emissions CO_abs="951.111774" CO2_abs="77594.831452" HC_abs="23.573703" PMx_abs="8.651474" NOx_abs="160.488204" fuel_abs="30.935868"/>
    </tripinfo>
    <tripinfo id="212327_212327_442" depart="27014.00" departLane="198147972_0" departPos="5.10" departSpeed="0.00" departDelay="0.00" arrival="27043.00" arrivalLane="4353628#1_0" arrivalPos="68.95" arrivalSpeed="12.71" duration="29.00" routeLength="63.85" waitSteps="0" rerouteNo="6" devices="tripinfo_212327_212327_442 hbefa_212327_212327_442" vType="DEFAULT_VEHTYPE" vaporized="">
        <emissions CO_abs="548.008990" CO2_abs="59357.311717" HC_abs="16.214795" PMx_abs="5.633276" NOx_abs="116.313490" fuel_abs="23.664857"/>
    </tripinfo>
    <tripinfo id="224931_224931_449" depart="27026.00" departLane="-28523795_0" departPos="5.10" departSpeed="0.00" departDelay="0.00" arrival="27044.00" arrivalLane="-28523795_0" arrivalPos="192.02" arrivalSpeed="13.85" duration="18.00" routeLength="186.92" waitSteps="0" rerouteNo="3" devices="tripinfo_224931_224931_449 hbefa_224931_224931_449" vType="DEFAULT_VEHTYPE" vaporized="">
        <emissions CO_abs="466.924855" CO2_abs="44733.625212" HC_abs="12.988102" PMx_abs="4.341577" NOx_abs="88.864710" fuel_abs="17.834611"/>
    </tripinfo>
    <tripinfo id="197472_197472_436" depart="27006.00" departLane="23800191#2_0" departPos="5.10" departSpeed="0.00" departDelay="6.00" arrival="27044.00" arrivalLane="130875842_0" arrivalPos="81.21" arrivalSpeed="13.41" duration="38.00" routeLength="76.11" waitSteps="0" rerouteNo="7" devices="tripinfo_197472_197472_436 hbefa_197472_197472_436" vType="DEFAULT_VEHTYPE" vaporized="">
        <emissions CO_abs="983.962897" CO2_abs="85055.235365" HC_abs="25.408348" PMx_abs="9.282093" NOx_abs="173.713423" fuel_abs="33.910218"/>
    </tripinfo>
    <tripinfo id="192246_192246_435" depart="27018.00" departLane="2511537#2_0" departPos="5.10" departSpeed="0.00" departDelay="18.00" arrival="27045.00" arrivalLane="2511537#2_0" arrivalPos="191.15" arrivalSpeed="8.04" duration="27.00" routeLength="186.05" waitSteps="0" rerouteNo="5" devices="tripinfo_192246_192246_435 hbefa_192246_192246_435" vType="DEFAULT_VEHTYPE" vaporized="">
        <emissions CO_abs="290.899972" CO2_abs="40678.911102" HC_abs="11.500194" PMx_abs="3.329743" NOx_abs="74.358353" fuel_abs="16.218053"/>
    </tripinfo>
    <tripinfo id="244003_244003_453" depart="27029.00" departLane="-28523795_0" departPos="5.10" departSpeed="0.00" departDelay="0.00" arrival="27046.00" arrivalLane="-28523795_0" arrivalPos="192.02" arrivalSpeed="13.65" duration="17.00" routeLength="186.92" waitSteps="0" rerouteNo="4" devices="tripinfo_244003_244003_453 hbefa_244003_244003_453" vType="DEFAULT_VEHTYPE" vaporized="">
        <emissions CO_abs="551.516150" CO2_abs="44414.451321" HC_abs="13.667022" PMx_abs="4.874922" NOx_abs="91.728696" fuel_abs="17.707360"/>
    </tripinfo>
    <tripinfo id="101376_101376_396" depart="27003.00" departLane="23471158#0_0" departPos="5.10" departSpeed="0.00" departDelay="3.00" arrival="27046.00" arrivalLane="32856811#2_0" arrivalPos="144.91" arrivalSpeed="12.67" duration="43.00" routeLength="139.81" waitSteps="0" rerouteNo="9" devices="tripinfo_101376_101376_396 hbefa_101376_101376_396" vType="DEFAULT_VEHTYPE" vaporized="">
        <emissions CO_abs="3326.866935" CO2_abs="206442.326030" HC_abs="67.540305" PMx_abs="25.952821" NOx_abs="455.901418" fuel_abs="82.305444"/>
    </tripinfo>
    <tripinfo id="101768_101768_396" depart="27000.00" departLane="23493181#0_0" departPos="5.10" departSpeed="0.00" departDelay="0.00" arrival="27046.00" arrivalLane="122989592#2_0" arrivalPos="74.34" arrivalSpeed="8.12" duration="46.00" routeLength="69.24" waitSteps="0" rerouteNo="10" devices="tripinfo_101768_101768_396 hbefa_101768_101768_396" vType="DEFAULT_VEHTYPE" vaporized="">
        <emissions CO_abs="731.666537" CO2_abs="70817.521192" HC_abs="21.435847" PMx_abs="7.080659" NOx_abs="139.343297" fuel_abs="28.233851"/>
    </tripinfo>
    <tripinfo id="245947_245947_454" depart="27016.00" departLane="-83823403#2_0" departPos="5.10" departSpeed="0.00" departDelay="0.00" arrival="27046.00" arrivalLane="23015533_0" arrivalPos="110.79" arrivalSpeed="13.74" duration="30.00" routeLength="105.69" waitSteps="0" rerouteNo="6" devices="tripinfo_245947_245947_454 hbefa_245947_245947_454" vType="DEFAULT_VEHTYPE" vaporized="">
        <emissions CO_abs="993.680230" CO2_abs="80767.224742" HC_abs="24.688561" PMx_abs="8.946921" NOx_abs="166.844155" fuel_abs="32.200652"/>
    </tripinfo>
    <tripinfo id="95606_95606_394" depart="27000.00" departLane="8225148_0" departPos="5.10" departSpeed="0.00" departDelay="0.00" arrival="27047.00" arrivalLane="145261451_0" arrivalPos="86.92" arrivalSpeed="13.72" duration="47.00" routeLength="81.82" waitSteps="0" rerouteNo="10" devices="tripinfo_95606_95606_394 hbefa_95606_95606_394" vType="DEFAULT_VEHTYPE" vaporized="">