<?xml version="1.0" encoding="UTF-8"?>

<!-- generated on Mon Apr 28 15:33:47 2014 by SUMO sumo Version 0.19.0
<?xml version="1.0" encoding="UTF-8"?>

<configuration xmlns:xsi="http://www.w3.org/2001/XMLSchema-instance" xsi:noNamespaceSchemaLocation="http://sumo-sim.org/xsd/sumoConfiguration.xsd">

    <input>
        <net-file value="data/map.net.xml"/>
        <route-files value="data/map.rou.xml"/>
    </input>

    <output>
        <tripinfo-output value="data/maptripinfoLocal.out.xml"/>
        <save-state.prefix value="data/state"/>
    </output>

    <time>
        <begin value="27000"/>
        <end value="27900"/>
    </time>

    <processing>
        <route-steps value="200"/>
        <scale value="0.8"/>
        <time-to-teleport value="300"/>
        <lanechange.allow-swap value="true"/>
    </processing>

    <report>
        <verbose value="true"/>
        <no-warnings value="true"/>
        <no-step-log value="true"/>
    </report>

    <emissions>
        <device.hbefa.probability value="1"/>
    </emissions>

    <traci_server>
        <remote-port value="8814"/>
    </traci_server>

</configuration>
-->

<tripinfos>
    <tripinfo id="136022_136022_411" depart="27003.00" departLane="23800191#2_0" departPos="5.10" departSpeed="0.00" departDelay="3.00" arrival="27009.00" arrivalLane="23800191#2_0" arrivalPos="38.41" arrivalSpeed="11.86" duration="6.00" routeLength="33.31" waitSteps="0" rerouteNo="1" devices="tripinfo_136022_136022_411 hbefa_136022_136022_411" vType="DEFAULT_VEHTYPE" vaporized="">
        <emissions CO_abs="367.894050" CO2_abs="24301.120969" HC_abs="8.380852" PMx_abs="3.092930" NOx_abs="52.269185" fuel_abs="9.688479"/>
    </tripinfo>
    <tripinfo id="182087_182087_431" depart="27000.00" departLane="4380937#2_0" departPos="5.10" departSpeed="0.00" departDelay="0.00" arrival="27011.00" arrivalLane="4380937#3_0" arrivalPos="72.76" arrivalSpeed="12.85" duration="11.00" routeLength="103.50" waitSteps="0" rerouteNo="2" devices="tripinfo_182087_182087_431 hbefa_182087_182087_431" vType="DEFAULT_VEHTYPE" vaporized="">
        <emissions CO_abs="463.737718" CO2_abs="35699.274624" HC_abs="11.307906" PMx_abs="4.038102" NOx_abs="74.284292" fuel_abs="14.232751"/>
    </tripinfo>
    <tripinfo id="72912_72912_384" depart="27003.00" departLane="9207803_0" departPos="5.10" departSpeed="0.00" departDelay="3.00" arrival="27014.00" arrivalLane="9207803_0" arrivalPos="69.23" arrivalSpeed="7.48" duration="11.00" routeLength="64.13" waitSteps="0" rerouteNo="1" devices="tripinfo_72912_72912_384 hbefa_72912_72912_384" vType="DEFAULT_VEHTYPE" vaporized="">
        <emissions CO_abs="235.767967" CO2_abs="21272.332182" HC_abs="6.810932" PMx_abs="2.127026" NOx_abs="41.912053" fuel_abs="8.480948"/>
    </tripinfo>
    <tripinfo id="251564_251564_457" depart="27002.00" departLane="51113317_0" departPos="5.10" departSpeed="0.00" departDelay="0.00" arrival="27014.00" arrivalLane="51113317_0" arrivalPos="125.08" arrivalSpeed="13.86" duration="12.00" routeLength="119.98" waitSteps="0" rerouteNo="1" devices="tripinfo_251564_251564_457 hbefa_251564_251564_457" vType="DEFAULT_VEHTYPE" vaporized="">
        <emissions CO_abs="571.329971" CO2_abs="40734.441729" HC_abs="13.156466" PMx_abs="4.924562" NOx_abs="86.691688" fuel_abs="16.240195"/>
    </tripinfo>
    <tripinfo id="105435_105435_398" depart="27003.00" departLane="145474196#1_0" departPos="5.10" departSpeed="0.00" departDelay="3.00" arrival="27015.00" arrivalLane="145474196#1_1" arrivalPos="94.12" arrivalSpeed="7.63" duration="12.00" routeLength="89.02" waitSteps="0" rerouteNo="1" devices="tripinfo_105435_105435_398 hbefa_105435_105435_398" vType="DEFAULT_VEHTYPE" vaporized="">
        <emissions CO_abs="603.223479" CO2_abs="39584.595204" HC_abs="13.473780" PMx_abs="5.188489" NOx_abs="85.878762" fuel_abs="15.781764"/>
    </tripinfo>
    <tripinfo id="92380_92380_392" depart="27000.00" departLane="-154755073#3_0" departPos="5.10" departSpeed="0.00" departDelay="0.00" arrival="27015.00" arrivalLane="-154755073#3_0" arrivalPos="102.52" arrivalSpeed="7.58" duration="15.00" routeLength="97.42" waitSteps="0" rerouteNo="1" devices="tripinfo_92380_92380_392 hbefa_92380_92380_392" vType="DEFAULT_VEHTYPE" vaporized="">
        <emissions CO_abs="181.132144" CO2_abs="23432.233072" HC_abs="6.893972" PMx_abs="1.916075" NOx_abs="43.074308" fuel_abs="9.342068"/>
    </tripinfo>
    <tripinfo id="84049_84049_390" depart="27006.00" departLane="9207803_0" departPos="5.10" departSpeed="0.00" departDelay="6.00" arrival="27016.00" arrivalLane="9207803_0" arrivalPos="69.23" arrivalSpeed="8.07" duration="10.00" routeLength="64.13" waitSteps="0" rerouteNo="1" devices="tripinfo_84049_84049_390 hbefa_84049_84049_390" vType="DEFAULT_VEHTYPE" vaporized="">
        <emissions CO_abs="191.395227" CO2_abs="18022.033118" HC_abs="5.687137" PMx_abs="1.788343" NOx_abs="35.268403" fuel_abs="7.185105"/>
    </tripinfo>
    <tripinfo id="105964_105964_399" depart="27006.00" departLane="145474196#1_0" departPos="5.10" departSpeed="0.00" departDelay="6.00" arrival="27019.00" arrivalLane="145474196#1_1" arrivalPos="94.12" arrivalSpeed="9.79" duration="13.00" routeLength="89.02" waitSteps="0" rerouteNo="1" devices="tripinfo_105964_105964_399 hbefa_105964_105964_399" vType="DEFAULT_VEHTYPE" vaporized="">
        <emissions CO_abs="678.240459" CO2_abs="44620.716821" HC_abs="15.198203" PMx_abs="5.737031" NOx_abs="96.519499" fuel_abs="17.789587"/>
    </tripinfo>
    <tripinfo id="232041_232041_451" depart="27002.00" departLane="28523795_0" departPos="5.10" departSpeed="0.00" departDelay="0.00" arrival="27019.00" arrivalLane="28523795_0" arrivalPos="192.02" arrivalSpeed="12.76" duration="17.00" routeLength="186.92" waitSteps="0" rerouteNo="0" devices="tripinfo_232041_232041_451 hbefa_232041_232041_451" vType="DEFAULT_VEHTYPE" vaporized="">
        <emissions CO_abs="445.692238" CO2_abs="43889.209180" HC_abs="12.439003" PMx_abs="4.501602" NOx_abs="87.594750" fuel_abs="17.497958"/>
    </tripinfo>
    <tripinfo id="135880_135880_411" depart="27000.00" departLane="150039002#2_0" departPos="5.10" departSpeed="0.00" departDelay="0.00" arrival="27022.00" arrivalLane="150039002#2_0" arrivalPos="249.40" arrivalSpeed="12.74" duration="22.00" routeLength="244.30" waitSteps="0" rerouteNo="1" devices="tripinfo_135880_135880_411 hbefa_135880_135880_411" vType="DEFAULT_VEHTYPE" vaporized="">
        <emissions CO_abs="525.317306" CO2_abs="47160.897049" HC_abs="13.842033" PMx_abs="4.999698" NOx_abs="95.554985" fuel_abs="18.802328"/>
    </tripinfo>
    <tripinfo id="219187_219187_446" depart="27000.00" departLane="144935690_0" departPos="5.10" departSpeed="0.00" departDelay="0.00" arrival="27022.00" arrivalLane="25997632_0" arrivalPos="136.14" arrivalSpeed="13.01" duration="22.00" routeLength="241.37" waitSteps="0" rerouteNo="1" devices="tripinfo_219187_219187_446 hbefa_219187_219187_446" vType="DEFAULT_VEHTYPE" vaporized="">
        <emissions CO_abs="553.302220" CO2_abs="52842.317995" HC_abs="15.160894" PMx_abs="5.352703" NOx_abs="105.779202" fuel_abs="21.067425"/>
    </tripinfo>
    <tripinfo id="206737_206737_440" depart="27007.00" departLane="-29206900_0" departPos="5.10" departSpeed="0.00" departDelay="0.00" arrival="27022.00" arrivalLane="29207110_0" arrivalPos="28.94" arrivalSpeed="12.36" duration="15.00" routeLength="103.46" waitSteps="0" rerouteNo="1" devices="tripinfo_206737_206737_440 hbefa_206737_206737_440" vType="DEFAULT_VEHTYPE" vaporized="">
        <emissions CO_abs="439.133236" CO2_abs="35370.958121" HC_abs="11.425984" PMx_abs="3.863374" NOx_abs="72.113225" fuel_abs="14.101853"/>
    </tripinfo>
    <tripinfo id="110327_110327_401" depart="27000.00" departLane="53212166#0_0" departPos="5.10" departSpeed="0.00" departDelay="0.00" arrival="27024.00" arrivalLane="28542995#2_2" arrivalPos="61.74" arrivalSpeed="12.69" duration="24.00" routeLength="231.82" waitSteps="0" rerouteNo="0" devices="tripinfo_110327_110327_401 hbefa_110327_110327_401" vType="DEFAULT_VEHTYPE" vaporized="">
        <emissions CO_abs="502.340978" CO2_abs="50926.263934" HC_abs="14.449777" PMx_abs="5.166501" NOx_abs="100.867701" fuel_abs="20.303522"/>
    </tripinfo>
    <tripinfo id="75851_75851_386" depart="27002.00" departLane="28542995#2_0" departPos="5.10" departSpeed="0.00" departDelay="2.00" arrival="27024.00" arrivalLane="23493181#0_0" arrivalPos="88.20" arrivalSpeed="11.92" duration="22.00" routeLength="144.84" waitSteps="0" rerouteNo="0" devices="tripinfo_75851_75851_386 hbefa_75851_75851_386" vType="DEFAULT_VEHTYPE" vaporized="">
        <emissions CO_abs="654.671526" CO2_abs="49986.848367" HC_abs="16.182339" PMx_abs="5.849860" NOx_abs="103.953864" fuel_abs="19.928981"/>
    </tripinfo>
    <tripinfo id="148867_148867_417" depart="27006.00" departLane="3065455_0" departPos="5.10" departSpeed="0.00" departDelay="6.00" arrival="27024.00" arrivalLane="23800191#0_0" arrivalPos="143.94" arrivalSpeed="12.86" duration="18.00" routeLength="194.49" waitSteps="0" rerouteNo="1" devices="tripinfo_148867_148867_417 hbefa_148867_148867_417" vType="DEFAULT_VEHTYPE" vaporized="">
        <emissions CO_abs="413.443017" CO2_abs="41355.668953" HC_abs="11.740422" PMx_abs="4.228687" NOx_abs="82.075640" fuel_abs="16.487873"/>
    </tripinfo>
    <tripinfo id="225242_225242_449" depart="27000.00" departLane="154755124_0" departPos="5.10" departSpeed="0.00" departDelay="0.00" arrival="27025.00" arrivalLane="4380937#3_1" arrivalPos="72.76" arrivalSpeed="12.79" duration="25.00" routeLength="103.50" waitSteps="0" rerouteNo="1" devices="tripinfo_225242_225242_449 hbefa_225242_225242_449" vType="DEFAULT_VEHTYPE" vaporized="">
        <emissions CO_abs="673.087884" CO2_abs="56666.790712" HC_abs="17.706119" PMx_abs="6.022954" NOx_abs="114.858311" fuel_abs="22.592174"/>
    </tripinfo>
    <tripinfo id="141415_141415_415" depart="27003.00" departLane="150039002#2_0" departPos="5.10" departSpeed="0.00" departDelay="3.00" arrival="27025.00" arrivalLane="150039002#2_0" arrivalPos="249.40" arrivalSpeed="12.65" duration="22.00" routeLength="244.30" waitSteps="0" rerouteNo="1" devices="tripinfo_141415_141415_415 hbefa_141415_141415_415" vType="DEFAULT_VEHTYPE" vaporized="">
        <emissions CO_abs="584.312534" CO2_abs="51840.227085" HC_abs="15.254643" PMx_abs="5.563794" NOx_abs="105.461425" fuel_abs="20.667906"/>
    </tripinfo>
    <tripinfo id="225541_225541_450" depart="27000.00" departLane="9207803_0" departPos="5.10" departSpeed="0.00" departDelay="0.00" arrival="27025.00" arrivalLane="154755073#3_0" arrivalPos="102.52" arrivalSpeed="7.11" duration="25.00" routeLength="166.65" waitSteps="0" rerouteNo="1" devices="tripinfo_225541_225541_450 hbefa_225541_225541_450" vType="DEFAULT_VEHTYPE" vaporized="">
        <emissions CO_abs="285.333718" CO2_abs="34343.613801" HC_abs="10.119352" PMx_abs="2.983464" NOx_abs="64.273940" fuel_abs="13.692267"/>
    </tripinfo>
    <tripinfo id="136596_136596_411" depart="27003.00" departLane="131651824_0" departPos="5.10" departSpeed="0.00" departDelay="3.00" arrival="27027.00" arrivalLane="4400211#0_0" arrivalPos="197.56" arrivalSpeed="13.69" duration="24.00" routeLength="253.49" waitSteps="0" rerouteNo="1" devices="tripinfo_136596_136596_411 hbefa_136596_136596_411" vType="DEFAULT_VEHTYPE" vaporized="">
        <emissions CO_abs="814.877152" CO2_abs="63560.900500" HC_abs="19.631076" PMx_abs="7.314850" NOx_abs="132.783401" fuel_abs="25.340755"/>
    </tripinfo>
    <tripinfo id="134089_134089_411" depart="27000.00" departLane="23800191#2_0" departPos="5.10" departSpeed="0.00" departDelay="0.00" arrival="27028.00" arrivalLane="4400211#0_0" arrivalPos="197.56" arrivalSpeed="13.67" duration="28.00" routeLength="291.90" waitSteps="0" rerouteNo="1" devices="tripinfo_134089_134089_411 hbefa_134089_134089_411" vType="DEFAULT_VEHTYPE" vaporized="">
        <emissions CO_abs="958.301621" CO2_abs="73683.313340" HC_abs="23.023661" PMx_abs="8.361418" NOx_abs="153.955181" fuel_abs="29.376404"/>
    </tripinfo>
    <tripinfo id="220353_220353_447" depart="27001.00" departLane="-165515969#3_0" departPos="5.10" departSpeed="0.00" departDelay="0.00" arrival="27028.00" arrivalLane="-165511531#0_0" arrivalPos="53.73" arrivalSpeed="13.57" duration="27.00" routeLength="345.81" waitSteps="0" rerouteNo="2" devices="tripinfo_220353_220353_447 hbefa_220353_220353_447" vType="DEFAULT_VEHTYPE" vaporized="">
        <emissions CO_abs="2318.065457" CO2_abs="139001.843474" HC_abs="46.984987" PMx_abs="18.202125" NOx_abs="309.395722" fuel_abs="55.417923"/>
    </tripinfo>
    <tripinfo id="84113_84113_390" depart="27000.00" departLane="150031205#0_0" departPos="5.10" departSpeed="0.00" departDelay="0.00" arrival="27029.00" arrivalLane="23471158#10_0" arrivalPos="144.68" arrivalSpeed="27.19" duration="29.00" routeLength="462.65" waitSteps="0" rerouteNo="1" devices="tripinfo_84113_84113_390 hbefa_84113_84113_390" vType="DEFAULT_VEHTYPE" vaporized="">
        <emissions CO_abs="3264.739946" CO2_abs="184758.983010" HC_abs="62.629983" PMx_abs="24.115523" NOx_abs="416.455235" fuel_abs="73.660663"/>
    </tripinfo>
    <tripinfo id="118681_118681_405" depart="27000.00" departLane="23471158#6_0" departPos="5.10" departSpeed="0.00" departDelay="0.00" arrival="27030.00" arrivalLane="32856811#2_0" arrivalPos="144.91" arrivalSpeed="12.82" duration="30.00" routeLength="453.34" waitSteps="0" rerouteNo="1" devices="tripinfo_118681_118681_405 hbefa_118681_118681_405" vType="DEFAULT_VEHTYPE" vaporized="">
        <emissions CO_abs="2032.348396" CO2_abs="129659.897744" HC_abs="41.982778" PMx_abs="15.760451" NOx_abs="283.281354" fuel_abs="51.693456"/>
    </tripinfo>
    <tripinfo id="188835_188835_434" depart="27006.00" departLane="187965762#1_0" departPos="5.10" departSpeed="0.00" departDelay="6.00" arrival="27030.00" arrivalLane="187965762#2_0" arrivalPos="85.18" arrivalSpeed="8.24" duration="24.00" routeLength="168.92" waitSteps="0" rerouteNo="1" devices="tripinfo_188835_188835_434 hbefa_188835_188835_434" vType="DEFAULT_VEHTYPE" vaporized="">
        <emissions CO_abs="264.936566" CO2_abs="34081.434346" HC_abs="9.711144" PMx_abs="3.000496" NOx_abs="63.515705" fuel_abs="13.587741"/>
    </tripinfo>
    <tripinfo id="187318_187318_433" depart="27013.00" departLane="-83823403#2_0" departPos="5.10" departSpeed="0.00" departDelay="0.00" arrival="27031.00" arrivalLane="-83823403#2_0" arrivalPos="184.87" arrivalSpeed="11.38" duration="18.00" routeLength="179.77" waitSteps="0" rerouteNo="1" devices="tripinfo_187318_187318_433 hbefa_187318_187318_433" vType="DEFAULT_VEHTYPE" vaporized="">
        <emissions CO_abs="598.352540" CO2_abs="44188.821603" HC_abs="14.207329" PMx_abs="5.303986" NOx_abs="93.177502" fuel_abs="17.617402"/>
    </tripinfo>
    <tripinfo id="122617_122617_406" depart="27000.00" departLane="131651824_0" departPos="5.10" departSpeed="0.00" departDelay="0.00" arrival="27031.00" arrivalLane="130875842_0" arrivalPos="81.21" arrivalSpeed="12.76" duration="31.00" routeLength="334.70" waitSteps="0" rerouteNo="1" devices="tripinfo_122617_122617_406 hbefa_122617_122617_406" vType="DEFAULT_VEHTYPE" vaporized="">
        <emissions CO_abs="989.406321" CO2_abs="80822.395440" HC_abs="24.356325" PMx_abs="9.351388" NOx_abs="167.989843" fuel_abs="32.222650"/>
    </tripinfo>
    <tripinfo id="104726_104726_398" depart="27000.00" departLane="23471158#5_0" departPos="5.10" departSpeed="0.00" departDelay="0.00" arrival="27032.00" arrivalLane="32856811#2_0" arrivalPos="144.91" arrivalSpeed="13.58" duration="32.00" routeLength="464.21" waitSteps="0" rerouteNo="1" devices="tripinfo_104726_104726_398 hbefa_104726_104726_398" vType="DEFAULT_VEHTYPE" vaporized="">
        <emissions CO_abs="2117.769715" CO2_abs="130401.289617" HC_abs="43.062258" PMx_abs="16.602745" NOx_abs="288.040051" fuel_abs="51.989035"/>
    </tripinfo>
    <tripinfo id="212444_212444_443" depart="27003.00" departLane="166155712#0_0" departPos="5.10" departSpeed="0.00" departDelay="0.00" arrival="27033.00" arrivalLane="33469672_0" arrivalPos="142.78" arrivalSpeed="13.02" duration="30.00" routeLength="317.06" waitSteps="0" rerouteNo="1" devices="tripinfo_212444_212444_443 hbefa_212444_212444_443" vType="DEFAULT_VEHTYPE" vaporized="">
        <emissions CO_abs="862.486967" CO2_abs="69214.431012" HC_abs="21.212453" PMx_abs="7.829900" NOx_abs="143.610013" fuel_abs="27.594730"/>
    </tripinfo>
    <tripinfo id="144652_144652_416" depart="27000.00" departLane="3065455_0" departPos="5.10" departSpeed="0.00" departDelay="0.00" arrival="27035.00" arrivalLane="130659365_0" arrivalPos="223.21" arrivalSpeed="7.42" duration="35.00" routeLength="365.42" waitSteps="0" rerouteNo="0" devices="tripinfo_144652_144652_416 hbefa_144652_144652_416" vType="DEFAULT_VEHTYPE" vaporized="">
        <emissions CO_abs="841.030414" CO2_abs="77103.629275" HC_abs="22.521765" PMx_abs="7.866445" NOx_abs="155.216581" fuel_abs="30.740036"/>
    </tripinfo>
    <tripinfo id="208001_208001_441" depart="27001.00" departLane="-83823403#2_0" departPos="5.10" departSpeed="0.00" departDelay="0.00" arrival="27035.00" arrivalLane="23015529#0_0" arrivalPos="184.87" arrivalSpeed="12.95" duration="34.00" routeLength="364.64" waitSteps="0" rerouteNo="1" devices="tripinfo_208001_208001_441 hbefa_208001_208001_441" vType="DEFAULT_VEHTYPE" vaporized="">
        <emissions CO_abs="1086.334075" CO2_abs="82408.328933" HC_abs="25.756501" PMx_abs="9.705587" NOx_abs="173.349629" fuel_abs="32.854934"/>
    </tripinfo>
    <tripinfo id="217202_217202_446" depart="27007.00" departLane="-83823403#2_0" departPos="5.10" departSpeed="0.00" departDelay="0.00" arrival="27036.00" arrivalLane="23015533_0" arrivalPos="110.79" arrivalSpeed="12.73" duration="29.00" routeLength="290.56" waitSteps="0" rerouteNo="1" devices="tripinfo_217202_217202_446 hbefa_217202_217202_446" vType="DEFAULT_VEHTYPE" vaporized="">
        <emissions CO_abs="875.464036" CO2_abs="73504.490146" HC_abs="22.187693" PMx_abs="8.029360" NOx_abs="150.820825" fuel_abs="29.305112"/>
    </tripinfo>
    <tripinfo id="238887_238887_451" depart="27010.00" departLane="-83823403#2_0" departPos="5.10" departSpeed="0.00" departDelay="0.00" arrival="27038.00" arrivalLane="23015533_0" arrivalPos="110.79" arrivalSpeed="13.75" duration="28.00" routeLength="290.56" waitSteps="0" rerouteNo="1" devices="tripinfo_238887_238887_451 hbefa_238887_238887_451" vType="DEFAULT_VEHTYPE" vaporized="">
        <emissions CO_abs="798.423969" CO2_abs="72358.809769" HC_abs="21.283212" PMx_abs="7.490858" NOx_abs="145.992465" fuel_abs="28.848349"/>
    </tripinfo>
    <tripinfo id="154499_154499_420" depart="27000.00" departLane="28542995#0_0" departPos="5.10" departSpeed="0.00" departDelay="0.00" arrival="27039.00" arrivalLane="23493260#4_0" arrivalPos="126.60" arrivalSpeed="13.21" duration="39.00" routeLength="435.19" waitSteps="0" rerouteNo="1" devices="tripinfo_154499_154499_420 hbefa_154499_154499_420" vType="DEFAULT_VEHTYPE" vaporized="">
        <emissions CO_abs="995.056181" CO2_abs="84876.539112" HC_abs="25.571763" PMx_abs="9.254971" NOx_abs="173.533817" fuel_abs="33.838974"/>
    </tripinfo>
    <tripinfo id="103310_103310_397" depart="27000.00" departLane="83703645_0" departPos="5.10" departSpeed="0.00" departDelay="0.00" arrival="27039.00" arrivalLane="23493177#0_0" arrivalPos="166.52" arrivalSpeed="8.09" duration="39.00" routeLength="279.85" waitSteps="0" rerouteNo="0" devices="tripinfo_103310_103310_397 hbefa_103310_103310_397" vType="DEFAULT_VEHTYPE" vaporized="">
        <emissions CO_abs="371.396963" CO2_abs="51289.017485" HC_abs="14.408036" PMx_abs="4.214568" NOx_abs="94.262468" fuel_abs="20.448139"/>
    </tripinfo>
    <tripinfo id="171544_171544_426" depart="27000.00" departLane="187965762#1_0" departPos="5.10" departSpeed="0.00" departDelay="0.00" arrival="27039.00" arrivalLane="23800191#0_0" arrivalPos="143.94" arrivalSpeed="13.53" duration="39.00" routeLength="368.51" waitSteps="0" rerouteNo="0" devices="tripinfo_171544_171544_426 hbefa_171544_171544_426" vType="DEFAULT_VEHTYPE" vaporized="">
        <emissions CO_abs="627.816563" CO2_abs="66009.105994" HC_abs="18.781123" PMx_abs="6.411887" NOx_abs="129.143748" fuel_abs="26.316819"/>
    </tripinfo>
    <tripinfo id="138122_138122_412" depart="27009.00" departLane="131651824_0" departPos="5.10" departSpeed="0.00" departDelay="9.00" arrival="27040.00" arrivalLane="130875842_0" arrivalPos="81.21" arrivalSpeed="13.87" duration="31.00" routeLength="334.70" waitSteps="0" rerouteNo="1" devices="tripinfo_138122_138122_412 hbefa_138122_138122_412" vType="DEFAULT_VEHTYPE" vaporized="">
        <emissions CO_abs="938.644630" CO2_abs="83074.856464" HC_abs="24.387546" PMx_abs="8.984288" NOx_abs="169.345017" fuel_abs="33.120674"/>
    </tripinfo>
    <tripinfo id="218769_218769_446" depart="27003.00" departLane="-55940134_0" departPos="5.10" departSpeed="0.00" departDelay="3.00" arrival="27041.00" arrivalLane="-144935692#1_1" arrivalPos="103.61" arrivalSpeed="13.58" duration="38.00" routeLength="447.77" waitSteps="0" rerouteNo="1" devices="tripinfo_218769_218769_446 hbefa_218769_218769_446" vType="DEFAULT_VEHTYPE" vaporized="">
        <emissions CO_abs="675.322507" CO2_abs="77970.689049" HC_abs="20.816397" PMx_abs="7.015176" NOx_abs="151.046963" fuel_abs="31.085730"/>
    </tripinfo>
    <tripinfo id="103637_103637_397" depart="27000.00" departLane="145474196#1_0" departPos="5.10" departSpeed="0.00" departDelay="0.00" arrival="27041.00" arrivalLane="150039002#2_1" arrivalPos="249.40" arrivalSpeed="12.89" duration="41.00" routeLength="361.28" waitSteps="2" rerouteNo="0" devices="tripinfo_103637_103637_397 hbefa_103637_103637_397" vType="DEFAULT_VEHTYPE" vaporized="">
        <emissions CO_abs="916.867221" CO2_abs="81842.871079" HC_abs="24.347202" PMx_abs="8.434365" NOx_abs="165.088506" fuel_abs="32.629498"/>
    </tripinfo>
    <tripinfo id="101376_101376_396" depart="27003.00" departLane="23471158#0_0" departPos="5.10" departSpeed="0.00" departDelay="3.00" arrival="27042.00" arrivalLane="32856811#2_0" arrivalPos="144.91" arrivalSpeed="12.84" duration="39.00" routeLength="664.02" waitSteps="0" rerouteNo="0" devices="tripinfo_101376_101376_396 hbefa_101376_101376_396" vType="DEFAULT_VEHTYPE" vaporized="">
        <emissions CO_abs="2713.823583" CO2_abs="179871.283986" HC_abs="55.981905" PMx_abs="21.282447" NOx_abs="390.028225" fuel_abs="71.712024"/>
    </tripinfo>
    <tripinfo id="244420_244420_453" depart="27015.00" departLane="-165515969#3_0" departPos="5.10" departSpeed="0.00" departDelay="0.00" arrival="27042.00" arrivalLane="-165511531#0_0" arrivalPos="53.73" arrivalSpeed="12.74" duration="27.00" routeLength="345.81" waitSteps="0" rerouteNo="1" devices="tripinfo_244420_244420_453 hbefa_244420_244420_453" vType="DEFAULT_VEHTYPE" vaporized="">
        <emissions CO_abs="2283.267062" CO2_abs="134280.460677" HC_abs="45.825448" PMx_abs="18.243787" NOx_abs="301.352081" fuel_abs="53.535575"/>
    </tripinfo>
    <tripinfo id="101768_101768_396" depart="27000.00" departLane="23493181#0_0" departPos="5.10" departSpeed="0.00" departDelay="0.00" arrival="27043.00" arrivalLane="122989592#2_1" arrivalPos="74.34" arrivalSpeed="7.81" duration="43.00" routeLength="323.96" waitSteps="0" rerouteNo="0" devices="tripinfo_101768_101768_396 hbefa_101768_101768_396" vType="DEFAULT_VEHTYPE" vaporized="">
        <emissions CO_abs="601.480696" CO2_abs="69992.950167" HC_abs="20.059289" PMx_abs="6.423609" NOx_abs="132.982650" fuel_abs="27.905108"/>
    </tripinfo>
    <tripinfo id="211099_211099_442" depart="27013.00" departLane="166155712#0_0" departPos="5.10" departSpeed="0.00" departDelay="0.00" arrival="27043.00" arrivalLane="33469672_0" arrivalPos="142.78" arrivalSpeed="13.09" duration="30.00" routeLength="317.06" waitSteps="0" rerouteNo="1" devices="tripinfo_211099_211099_442 hbefa_211099_211099_442" vType="DEFAULT_VEHTYPE" vaporized="">
        <emissions CO_abs="978.540398" CO2_abs="78118.129705" HC_abs="23.894521" PMx_abs="8.999755" NOx_abs="162.713921" fuel_abs="31.144499"/>
    </tripinfo>
    <tripinfo id="197472_197472_436" depart="27006.00" departLane="23800191#2_0" departPos="5.10" departSpeed="0.00" departDelay="6.00" arrival="27043.00" arrivalLane="130875842_0" arrivalPos="81.21" arrivalSpeed="12.78" duration="37.00" routeLength="373.11" waitSteps="0" rerouteNo="1" devices="tripinfo_197472_197472_436 hbefa_197472_197472_436" vType="DEFAULT_VEHTYPE" vaporized="">
        <emissions CO_abs="1066.202437" CO2_abs="90219.987463" HC_abs="27.226037" PMx_abs="9.949975" NOx_abs="185.028025" fuel_abs="35.969324"/>
    </tripinfo>
    <tripinfo id="212327_212327_442" depart="27014.00" departLane="198147972_0" departPos="5.10" departSpeed="0.00" departDelay="0.00" arrival="27043.00" arrivalLane="4353628#1_0" arrivalPos="68.95" arrivalSpeed="13.74" duration="29.00" routeLength="339.08" waitSteps="0" rerouteNo="1" devices="tripinfo_212327_212327_442 hbefa_212327_212327_442" vType="DEFAULT_VEHTYPE" vaporized="">
        <emissions CO_abs="680.267667" CO2_abs="65259.533707" HC_abs="18.501963" PMx_abs="6.675964" NOx_abs="130.977083" fuel_abs="26.017981"/>
    </tripinfo>
    <tripinfo id="184987_184987_431" depart="27000.00" departLane="-186463490#0_0" departPos="5.10" departSpeed="0.00" departDelay="0.00" arrival="27044.00" arrivalLane="-144935692#1_0" arrivalPos="103.61" arrivalSpeed="13.55" duration="44.00" routeLength="500.46" waitSteps="0" rerouteNo="1" devices="tripinfo_184987_184987_431 hbefa_184987_184987_431" vType="DEFAULT_VEHTYPE" vaporized="">
        <emissions CO_abs="986.006838" CO2_abs="99780.790153" HC_abs="27.996397" PMx_abs="9.816076" NOx_abs="197.782650" fuel_abs="39.781077"/>
    </tripinfo>
    <tripinfo id="224931_224931_449" depart="27026.00" departLane="-28523795_0" departPos="5.10" departSpeed="0.00" departDelay="0.00" arrival="27044.00" arrivalLane="-28523795_0" arrivalPos="192.02" arrivalSpeed="13.12" duration="18.00" routeLength="186.92" waitSteps="0" rerouteNo="1" devices="tripinfo_224931_224931_449 hbefa_224931_224931_449" vType="DEFAULT_VEHTYPE" vaporized="">
        <emissions CO_abs="440.253930" CO2_abs="43255.462910" HC_abs="12.340928" PMx_abs="4.393671" NOx_abs="86.130858" fuel_abs="17.245292"/>
    </tripinfo>
    <tripinfo id="245947_245947_454" depart="27016.00" departLane="-83823403#2_0" departPos="5.10" departSpeed="0.00" departDelay="0.00" arrival="27046.00" arrivalLane="23015533_0" arrivalPos="110.79" arrivalSpeed="13.45" duration="30.00" routeLength="290.56" waitSteps="0" rerouteNo="1" devices="tripinfo_245947_245947_454 hbefa_245947_245947_454" vType="DEFAULT_VEHTYPE" vaporized="">
        <emissions CO_abs="967.365562" CO2_abs="73215.338462" HC_abs="23.152717" PMx_abs="8.615116" NOx_abs="153.635823" fuel_abs="29.189829"/>
    </tripinfo>
    <tripinfo id="95606_95606_394" depart="27000.00" departLane="8225148_0" departPos="5.10" departSpeed="0.00" departDelay="0.00" arrival="27047.00" arrivalLane="145261451_0" arrivalPos="86.92" arrivalSpeed="13.79" duration="47.00" routeLength="515.94" waitSteps="0" rerouteNo="1" devices="tripinfo_95606_95606_394 hbefa_95606_95606_394" vType="DEFAULT_VEHTYPE" vaporized="">
        <emissions CO_abs="1399.839526" CO2_abs="115711.767461" HC_abs="34.654928" PMx_abs="13.072714" NOx_abs="239.671051" fuel_abs="46.132509"/>
    </tripinfo>
    <tripinfo id="244003_244003_453" depart="27029.00" departLane="-28523795_0" departPos="5.10" departSpeed="0.00" departDelay="0.00" arrival="27047.00" arrivalLane="-28523795_0" arrivalPos="192.02" arrivalSpeed="12.77" duration="18.00" routeLength="186.92" waitSteps="0" rerouteNo="0" devices="tripinfo_244003_244003_453 hbefa_244003_244003_453" vType="DEFAULT_VEHTYPE" vaporized="">
        <emissions CO_abs="527.447415" CO2_abs="44271.182842" HC_abs="13.410255" PMx_abs="4.863724" NOx_abs="90.702241" fuel_abs="17.650241"/>
    </tripinfo>
    <tripinfo id="100018_100018_396" depart="27000.00" departLane="23471158#0_0" departPos="5.10" departSpeed="0.00" departDelay="0.00" arrival="27047.00" arrivalLane="28557537#2_0" arrivalPos="158.64" arrivalSpeed="22.46" duration="47.00" routeLength="588.48" waitSteps="0" rerouteNo="1" devices="tripinfo_100018_100018_396 hbefa_100018_100018_396" vType="DEFAULT_VEHTYPE" vaporized="">
        <emissions CO_abs="3357.427220" CO2_abs="208122.530012" HC_abs="68.596654" PMx_abs="26.886239" NOx_abs="460.089970" fuel_abs="82.975311"/>
    </tripinfo>
    <tripinfo id="140107_140107_414" depart="27000.00" departLane="154755117_0" departPos="5.10" departSpeed="0.00" departDelay="0.00" arrival="27047.00" arrivalLane="23800191#0_0" arrivalPos="143.94" arrivalSpeed="13.66" duration="47.00" routeLength="212.88" waitSteps="18" rerouteNo="1" devices="tripinfo_140107_140107_414 hbefa_140107_140107_414" vType="DEFAULT_VEHTYPE" vaporized="">
        <emissions CO_abs="742.648127" CO2_abs="68690.331969" HC_abs="23.395417" PMx_abs="6.392532" NOx_abs="131.266632" fuel_abs="27.385777"/>
    </tripinfo>
    <tripinfo id="221885_221885_448" depart="27017.00" departLane="-175607927#0_0" departPos="5.10" departSpeed="0.00" departDelay="0.00" arrival="27047.00" arrivalLane="-29214406_0" arrivalPos="179.38" arrivalSpeed="13.08" duration="30.00" routeLength="317.06" waitSteps="0" rerouteNo="1" devices="tripinfo_221885_221885_448 hbefa_221885_221885_448" vType="DEFAULT_VEHTYPE" vaporized="">
        <emissions CO_abs="861.717483" CO2_abs="76245.074843" HC_abs="22.473984" PMx_abs="8.041045" NOx_abs="154.922844" fuel_abs="30.397743"/>
    </tripinfo>
    <tripinfo id="125812_125812_406" depart="27006.00" departLane="36454807#3_0" departPos="5.10" departSpeed="0.00" departDelay="6.00" arrival="27048.00" arrivalLane="32856811#2_0" arrivalPos="144.91" arrivalSpeed="12.78" duration="42.00" routeLength="538.02" waitSteps="0" rerouteNo="1" devices="tripinfo_125812_125812_406 hbefa_125812_125812_406" vType="DEFAULT_VEHTYPE" vaporized="">