<?xml version="1.0" encoding="UTF-8"?>

<!-- generated on Thu Apr 17 15:05:43 2014 by SUMO sumo Version 0.19.0
<?xml version="1.0" encoding="UTF-8"?>

<configuration xmlns:xsi="http://www.w3.org/2001/XMLSchema-instance" xsi:noNamespaceSchemaLocation="http://sumo-sim.org/xsd/sumoConfiguration.xsd">

    <input>
        <net-file value="data/map.net.xml"/>
        <route-files value="data/map.rou.xml"/>
    </input>

    <output>
        <tripinfo-output value="data/maptripinfoLocal.out.xml"/>
        <save-state.prefix value="data/state"/>
    </output>

    <time>
        <begin value="27000"/>
        <end value="27900"/>
    </time>

    <processing>
        <route-steps value="200"/>
        <scale value="0.8"/>
        <time-to-teleport value="300"/>
        <lanechange.allow-swap value="true"/>
    </processing>

    <report>
        <verbose value="true"/>
        <no-warnings value="true"/>
        <no-step-log value="true"/>
    </report>

    <emissions>
        <device.hbefa.probability value="1"/>
    </emissions>

    <traci_server>
        <remote-port value="8814"/>
    </traci_server>

</configuration>
-->

<tripinfos>
    <tripinfo id="136022_136022_411" depart="27003.00" departLane="23800191#2_0" departPos="5.10" departSpeed="0.00" departDelay="3.00" arrival="27009.00" arrivalLane="23800191#2_0" arrivalPos="38.41" arrivalSpeed="12.80" duration="6.00" routeLength="33.31" waitSteps="0" rerouteNo="1" devices="tripinfo_136022_136022_411 hbefa_136022_136022_411" vType="DEFAULT_VEHTYPE" vaporized="">
        <emissions CO_abs="441.769826" CO2_abs="27889.325161" HC_abs="9.665120" PMx_abs="3.722327" NOx_abs="61.053360" fuel_abs="11.119041"/>
    </tripinfo>
    <tripinfo id="182087_182087_431" depart="27000.00" departLane="4380937#2_0" departPos="5.10" departSpeed="0.00" departDelay="0.00" arrival="27012.00" arrivalLane="4380937#3_0" arrivalPos="72.76" arrivalSpeed="13.28" duration="12.00" routeLength="103.50" waitSteps="0" rerouteNo="2" devices="tripinfo_182087_182087_431 hbefa_182087_182087_431" vType="DEFAULT_VEHTYPE" vaporized="">
        <emissions CO_abs="510.697906" CO2_abs="37155.901342" HC_abs="12.064950" PMx_abs="4.375990" NOx_abs="78.321092" fuel_abs="14.813485"/>
    </tripinfo>
    <tripinfo id="72912_72912_384" depart="27003.00" departLane="9207803_0" departPos="5.10" departSpeed="0.00" departDelay="3.00" arrival="27014.00" arrivalLane="9207803_0" arrivalPos="69.23" arrivalSpeed="7.77" duration="11.00" routeLength="64.13" waitSteps="0" rerouteNo="1" devices="tripinfo_72912_72912_384 hbefa_72912_72912_384" vType="DEFAULT_VEHTYPE" vaporized="">
        <emissions CO_abs="285.056897" CO2_abs="23495.469737" HC_abs="7.635140" PMx_abs="2.581427" NOx_abs="47.576738" fuel_abs="9.367279"/>
    </tripinfo>
    <tripinfo id="251564_251564_457" depart="27002.00" departLane="51113317_0" departPos="5.10" departSpeed="0.00" departDelay="0.00" arrival="27014.00" arrivalLane="51113317_0" arrivalPos="125.08" arrivalSpeed="13.07" duration="12.00" routeLength="119.98" waitSteps="0" rerouteNo="1" devices="tripinfo_251564_251564_457 hbefa_251564_251564_457" vType="DEFAULT_VEHTYPE" vaporized="">
        <emissions CO_abs="528.771754" CO2_abs="36567.651768" HC_abs="11.997962" PMx_abs="4.562340" NOx_abs="78.449305" fuel_abs="14.578958"/>
    </tripinfo>
    <tripinfo id="92380_92380_392" depart="27000.00" departLane="-154755073#3_0" departPos="5.10" departSpeed="0.00" departDelay="0.00" arrival="27015.00" arrivalLane="-154755073#3_0" arrivalPos="102.52" arrivalSpeed="7.70" duration="15.00" routeLength="97.42" waitSteps="0" rerouteNo="1" devices="tripinfo_92380_92380_392 hbefa_92380_92380_392" vType="DEFAULT_VEHTYPE" vaporized="">
        <emissions CO_abs="213.782590" CO2_abs="21683.141810" HC_abs="6.707842" PMx_abs="2.123922" NOx_abs="41.906999" fuel_abs="8.644732"/>
    </tripinfo>
    <tripinfo id="105435_105435_398" depart="27003.00" departLane="145474196#1_0" departPos="5.10" departSpeed="0.00" departDelay="3.00" arrival="27017.00" arrivalLane="145474196#1_1" arrivalPos="94.12" arrivalSpeed="9.03" duration="14.00" routeLength="89.02" waitSteps="0" rerouteNo="1" devices="tripinfo_105435_105435_398 hbefa_105435_105435_398" vType="DEFAULT_VEHTYPE" vaporized="">
        <emissions CO_abs="535.733931" CO2_abs="37910.859385" HC_abs="12.738429" PMx_abs="4.534651" NOx_abs="79.960876" fuel_abs="15.114471"/>
    </tripinfo>
    <tripinfo id="84049_84049_390" depart="27006.00" departLane="9207803_0" departPos="5.10" departSpeed="0.00" departDelay="6.00" arrival="27017.00" arrivalLane="9207803_0" arrivalPos="69.23" arrivalSpeed="7.92" duration="11.00" routeLength="64.13" waitSteps="0" rerouteNo="1" devices="tripinfo_84049_84049_390 hbefa_84049_84049_390" vType="DEFAULT_VEHTYPE" vaporized="">
        <emissions CO_abs="183.249750" CO2_abs="18574.106155" HC_abs="5.835008" PMx_abs="1.753743" NOx_abs="35.631504" fuel_abs="7.405208"/>
    </tripinfo>
    <tripinfo id="105964_105964_399" depart="27006.00" departLane="145474196#1_0" departPos="5.10" departSpeed="0.00" departDelay="6.00" arrival="27018.00" arrivalLane="145474196#1_0" arrivalPos="94.12" arrivalSpeed="10.74" duration="12.00" routeLength="89.02" waitSteps="0" rerouteNo="1" devices="tripinfo_105964_105964_399 hbefa_105964_105964_399" vType="DEFAULT_VEHTYPE" vaporized="">
        <emissions CO_abs="498.556409" CO2_abs="37862.837551" HC_abs="12.242648" PMx_abs="4.322692" NOx_abs="78.750541" fuel_abs="15.095327"/>
    </tripinfo>
    <tripinfo id="232041_232041_451" depart="27002.00" departLane="28523795_0" departPos="5.10" departSpeed="0.00" departDelay="0.00" arrival="27019.00" arrivalLane="28523795_0" arrivalPos="192.02" arrivalSpeed="13.78" duration="17.00" routeLength="186.92" waitSteps="0" rerouteNo="0" devices="tripinfo_232041_232041_451 hbefa_232041_232041_451" vType="DEFAULT_VEHTYPE" vaporized="">
        <emissions CO_abs="573.783953" CO2_abs="42703.534008" HC_abs="13.603149" PMx_abs="4.950652" NOx_abs="89.747760" fuel_abs="17.025242"/>
    </tripinfo>
    <tripinfo id="135880_135880_411" depart="27000.00" departLane="150039002#2_0" departPos="5.10" departSpeed="0.00" departDelay="0.00" arrival="27021.00" arrivalLane="150039002#2_0" arrivalPos="249.40" arrivalSpeed="13.61" duration="21.00" routeLength="244.30" waitSteps="0" rerouteNo="1" devices="tripinfo_135880_135880_411 hbefa_135880_135880_411" vType="DEFAULT_VEHTYPE" vaporized="">
        <emissions CO_abs="672.822583" CO2_abs="54204.507619" HC_abs="16.436936" PMx_abs="6.179968" NOx_abs="112.741824" fuel_abs="21.610507"/>
    </tripinfo>
    <tripinfo id="219187_219187_446" depart="27000.00" departLane="144935690_0" departPos="5.10" departSpeed="0.00" departDelay="0.00" arrival="27021.00" arrivalLane="25997632_0" arrivalPos="136.14" arrivalSpeed="13.65" duration="21.00" routeLength="241.37" waitSteps="0" rerouteNo="1" devices="tripinfo_219187_219187_446 hbefa_219187_219187_446" vType="DEFAULT_VEHTYPE" vaporized="">
        <emissions CO_abs="539.398435" CO2_abs="52680.236636" HC_abs="14.959222" PMx_abs="5.221682" NOx_abs="104.974169" fuel_abs="21.002807"/>
    </tripinfo>
    <tripinfo id="206737_206737_440" depart="27007.00" departLane="-29206900_0" departPos="5.10" departSpeed="0.00" departDelay="0.00" arrival="27023.00" arrivalLane="29207110_0" arrivalPos="28.94" arrivalSpeed="12.68" duration="16.00" routeLength="103.46" waitSteps="0" rerouteNo="1" devices="tripinfo_206737_206737_440 hbefa_206737_206737_440" vType="DEFAULT_VEHTYPE" vaporized="">
        <emissions CO_abs="545.447577" CO2_abs="39643.096501" HC_abs="13.177163" PMx_abs="4.785410" NOx_abs="83.302860" fuel_abs="15.805087"/>
    </tripinfo>
    <tripinfo id="110327_110327_401" depart="27000.00" departLane="53212166#0_0" departPos="5.10" departSpeed="0.00" departDelay="0.00" arrival="27024.00" arrivalLane="28542995#2_2" arrivalPos="61.74" arrivalSpeed="13.33" duration="24.00" routeLength="231.82" waitSteps="0" rerouteNo="1" devices="tripinfo_110327_110327_401 hbefa_110327_110327_401" vType="DEFAULT_VEHTYPE" vaporized="">
        <emissions CO_abs="580.390104" CO2_abs="52146.224582" HC_abs="15.606704" PMx_abs="5.349578" NOx_abs="104.909799" fuel_abs="20.789898"/>
    </tripinfo>
    <tripinfo id="225242_225242_449" depart="27000.00" departLane="154755124_0" departPos="5.10" departSpeed="0.00" departDelay="0.00" arrival="27024.00" arrivalLane="4380937#3_1" arrivalPos="72.76" arrivalSpeed="13.24" duration="24.00" routeLength="103.50" waitSteps="0" rerouteNo="2" devices="tripinfo_225242_225242_449 hbefa_225242_225242_449" vType="DEFAULT_VEHTYPE" vaporized="">
        <emissions CO_abs="591.730798" CO2_abs="53374.727421" HC_abs="16.210627" PMx_abs="5.640046" NOx_abs="107.154924" fuel_abs="21.279682"/>
    </tripinfo>
    <tripinfo id="75851_75851_386" depart="27002.00" departLane="28542995#2_0" departPos="5.10" departSpeed="0.00" departDelay="2.00" arrival="27024.00" arrivalLane="23493181#0_0" arrivalPos="88.20" arrivalSpeed="10.24" duration="22.00" routeLength="144.84" waitSteps="0" rerouteNo="1" devices="tripinfo_75851_75851_386 hbefa_75851_75851_386" vType="DEFAULT_VEHTYPE" vaporized="">
        <emissions CO_abs="496.495468" CO2_abs="45653.879557" HC_abs="14.027787" PMx_abs="4.774092" NOx_abs="90.680033" fuel_abs="18.201495"/>
    </tripinfo>
    <tripinfo id="148867_148867_417" depart="27006.00" departLane="3065455_0" departPos="5.10" departSpeed="0.00" departDelay="6.00" arrival="27024.00" arrivalLane="23800191#0_0" arrivalPos="143.94" arrivalSpeed="13.40" duration="18.00" routeLength="194.49" waitSteps="0" rerouteNo="1" devices="tripinfo_148867_148867_417 hbefa_148867_148867_417" vType="DEFAULT_VEHTYPE" vaporized="">
        <emissions CO_abs="483.965404" CO2_abs="45016.657316" HC_abs="13.184661" PMx_abs="4.541817" NOx_abs="90.164241" fuel_abs="17.947453"/>
    </tripinfo>
    <tripinfo id="141415_141415_415" depart="27003.00" departLane="150039002#2_0" departPos="5.10" departSpeed="0.00" departDelay="3.00" arrival="27025.00" arrivalLane="150039002#2_0" arrivalPos="249.40" arrivalSpeed="13.33" duration="22.00" routeLength="244.30" waitSteps="0" rerouteNo="1" devices="tripinfo_141415_141415_415 hbefa_141415_141415_415" vType="DEFAULT_VEHTYPE" vaporized="">
        <emissions CO_abs="457.203247" CO2_abs="48692.477768" HC_abs="13.556322" PMx_abs="4.532346" NOx_abs="95.197488" fuel_abs="19.412948"/>
    </tripinfo>
    <tripinfo id="225541_225541_450" depart="27000.00" departLane="9207803_0" departPos="5.10" departSpeed="0.00" departDelay="0.00" arrival="27025.00" arrivalLane="154755073#3_0" arrivalPos="102.52" arrivalSpeed="7.11" duration="25.00" routeLength="166.65" waitSteps="0" rerouteNo="1" devices="tripinfo_225541_225541_450 hbefa_225541_225541_450" vType="DEFAULT_VEHTYPE" vaporized="">
        <emissions CO_abs="377.834477" CO2_abs="37025.938087" HC_abs="11.350546" PMx_abs="3.666915" NOx_abs="72.297884" fuel_abs="14.761667"/>
    </tripinfo>
    <tripinfo id="68737_68737_381" depart="27013.00" departLane="23493176_0" departPos="5.10" departSpeed="0.00" departDelay="13.00" arrival="27027.00" arrivalLane="23493176_1" arrivalPos="83.31" arrivalSpeed="8.03" duration="14.00" routeLength="78.21" waitSteps="0" rerouteNo="1" devices="tripinfo_68737_68737_381 hbefa_68737_68737_381" vType="DEFAULT_VEHTYPE" vaporized="">
        <emissions CO_abs="319.068751" CO2_abs="27102.148256" HC_abs="8.834223" PMx_abs="2.865978" NOx_abs="54.149131" fuel_abs="10.805205"/>
    </tripinfo>
    <tripinfo id="136596_136596_411" depart="27003.00" departLane="131651824_0" departPos="5.10" departSpeed="0.00" departDelay="3.00" arrival="27027.00" arrivalLane="4400211#0_0" arrivalPos="197.56" arrivalSpeed="10.93" duration="24.00" routeLength="253.49" waitSteps="0" rerouteNo="1" devices="tripinfo_136596_136596_411 hbefa_136596_136596_411" vType="DEFAULT_VEHTYPE" vaporized="">
        <emissions CO_abs="718.152679" CO2_abs="61773.386656" HC_abs="18.470616" PMx_abs="6.560123" NOx_abs="126.008303" fuel_abs="24.628102"/>
    </tripinfo>
    <tripinfo id="134089_134089_411" depart="27000.00" departLane="23800191#2_0" departPos="5.10" departSpeed="0.00" departDelay="0.00" arrival="27029.00" arrivalLane="4400211#0_0" arrivalPos="197.56" arrivalSpeed="12.80" duration="29.00" routeLength="291.90" waitSteps="0" rerouteNo="0" devices="tripinfo_134089_134089_411 hbefa_134089_134089_411" vType="DEFAULT_VEHTYPE" vaporized="">
        <emissions CO_abs="798.405558" CO2_abs="70576.874482" HC_abs="20.918745" PMx_abs="7.451444" NOx_abs="143.213082" fuel_abs="28.137917"/>
    </tripinfo>
    <tripinfo id="84113_84113_390" depart="27000.00" departLane="150031205#0_0" departPos="5.10" departSpeed="0.00" departDelay="0.00" arrival="27029.00" arrivalLane="23471158#10_0" arrivalPos="144.68" arrivalSpeed="26.74" duration="29.00" routeLength="462.65" waitSteps="0" rerouteNo="1" devices="tripinfo_84113_84113_390 hbefa_84113_84113_390" vType="DEFAULT_VEHTYPE" vaporized="">
        <emissions CO_abs="2419.645597" CO2_abs="142666.261126" HC_abs="47.431309" PMx_abs="17.788807" NOx_abs="316.930382" fuel_abs="56.878932"/>
    </tripinfo>
    <tripinfo id="220353_220353_447" depart="27001.00" departLane="-165515969#3_0" departPos="5.10" departSpeed="0.00" departDelay="0.00" arrival="27029.00" arrivalLane="-165511531#0_0" arrivalPos="53.73" arrivalSpeed="13.41" duration="28.00" routeLength="345.81" waitSteps="0" rerouteNo="2" devices="tripinfo_220353_220353_447 hbefa_220353_220353_447" vType="DEFAULT_VEHTYPE" vaporized="">
        <emissions CO_abs="2237.909457" CO2_abs="137465.765624" HC_abs="45.913040" PMx_abs="17.828952" NOx_abs="304.270031" fuel_abs="54.805513"/>
    </tripinfo>
    <tripinfo id="188835_188835_434" depart="27006.00" departLane="187965762#1_0" departPos="5.10" departSpeed="0.00" departDelay="6.00" arrival="27030.00" arrivalLane="187965762#2_0" arrivalPos="85.18" arrivalSpeed="8.24" duration="24.00" routeLength="168.92" waitSteps="0" rerouteNo="1" devices="tripinfo_188835_188835_434 hbefa_188835_188835_434" vType="DEFAULT_VEHTYPE" vaporized="">
        <emissions CO_abs="242.964810" CO2_abs="29620.577229" HC_abs="8.656729" PMx_abs="2.608060" NOx_abs="55.445006" fuel_abs="11.809266"/>
    </tripinfo>
    <tripinfo id="122617_122617_406" depart="27000.00" departLane="131651824_0" departPos="5.10" departSpeed="0.00" departDelay="0.00" arrival="27031.00" arrivalLane="130875842_0" arrivalPos="81.21" arrivalSpeed="13.21" duration="31.00" routeLength="334.70" waitSteps="0" rerouteNo="1" devices="tripinfo_122617_122617_406 hbefa_122617_122617_406" vType="DEFAULT_VEHTYPE" vaporized="">
        <emissions CO_abs="894.961311" CO2_abs="72654.924710" HC_abs="22.217972" PMx_abs="8.047475" NOx_abs="150.119041" fuel_abs="28.966403"/>
    </tripinfo>
    <tripinfo id="187318_187318_433" depart="27013.00" departLane="-83823403#2_0" departPos="5.10" departSpeed="0.00" departDelay="0.00" arrival="27032.00" arrivalLane="-83823403#2_0" arrivalPos="184.87" arrivalSpeed="11.71" duration="19.00" routeLength="179.77" waitSteps="0" rerouteNo="1" devices="tripinfo_187318_187318_433 hbefa_187318_187318_433" vType="DEFAULT_VEHTYPE" vaporized="">
        <emissions CO_abs="724.555465" CO2_abs="54458.273924" HC_abs="17.224291" PMx_abs="6.440609" NOx_abs="114.589363" fuel_abs="21.711676"/>
    </tripinfo>
    <tripinfo id="212444_212444_443" depart="27003.00" departLane="166155712#0_0" departPos="5.10" departSpeed="0.00" departDelay="0.00" arrival="27033.00" arrivalLane="33469672_0" arrivalPos="142.78" arrivalSpeed="13.53" duration="30.00" routeLength="317.06" waitSteps="0" rerouteNo="1" devices="tripinfo_212444_212444_443 hbefa_212444_212444_443" vType="DEFAULT_VEHTYPE" vaporized="">
        <emissions CO_abs="890.078939" CO2_abs="71913.096602" HC_abs="21.995828" PMx_abs="8.149990" NOx_abs="149.059429" fuel_abs="28.670647"/>
    </tripinfo>
    <tripinfo id="103310_103310_397" depart="27000.00" departLane="83703645_0" departPos="5.10" departSpeed="0.00" departDelay="0.00" arrival="27035.00" arrivalLane="23493177#0_0" arrivalPos="166.52" arrivalSpeed="7.76" duration="35.00" routeLength="279.85" waitSteps="0" rerouteNo="1" devices="tripinfo_103310_103310_397 hbefa_103310_103310_397" vType="DEFAULT_VEHTYPE" vaporized="">
        <emissions CO_abs="539.827081" CO2_abs="58888.036914" HC_abs="17.040240" PMx_abs="5.543044" NOx_abs="113.424920" fuel_abs="23.477752"/>
    </tripinfo>
    <tripinfo id="144652_144652_416" depart="27000.00" departLane="3065455_0" departPos="5.10" departSpeed="0.00" departDelay="0.00" arrival="27035.00" arrivalLane="130659365_0" arrivalPos="223.21" arrivalSpeed="6.74" duration="35.00" routeLength="365.42" waitSteps="0" rerouteNo="1" devices="tripinfo_144652_144652_416 hbefa_144652_144652_416" vType="DEFAULT_VEHTYPE" vaporized="">
        <emissions CO_abs="782.658562" CO2_abs="71389.424100" HC_abs="20.940235" PMx_abs="7.387685" NOx_abs="143.850781" fuel_abs="28.461870"/>
    </tripinfo>
    <tripinfo id="111586_111586_401" depart="27003.00" departLane="36454807#3_0" departPos="5.10" departSpeed="0.00" departDelay="3.00" arrival="27035.00" arrivalLane="23471158#9_0" arrivalPos="213.75" arrivalSpeed="27.02" duration="32.00" routeLength="380.36" waitSteps="0" rerouteNo="2" devices="tripinfo_111586_111586_401 hbefa_111586_111586_401" vType="DEFAULT_VEHTYPE" vaporized="">
        <emissions CO_abs="2519.049181" CO2_abs="154782.288853" HC_abs="51.720119" PMx_abs="19.875605" NOx_abs="342.039927" fuel_abs="61.709353"/>
    </tripinfo>
    <tripinfo id="208001_208001_441" depart="27001.00" departLane="-83823403#2_0" departPos="5.10" departSpeed="0.00" departDelay="0.00" arrival="27035.00" arrivalLane="23015529#0_0" arrivalPos="184.87" arrivalSpeed="13.25" duration="34.00" routeLength="364.64" waitSteps="0" rerouteNo="1" devices="tripinfo_208001_208001_441 hbefa_208001_208001_441" vType="DEFAULT_VEHTYPE" vaporized="">
        <emissions CO_abs="928.969040" CO2_abs="80236.502656" HC_abs="23.949930" PMx_abs="8.544189" NOx_abs="163.603738" fuel_abs="31.989064"/>
    </tripinfo>
    <tripinfo id="217202_217202_446" depart="27007.00" departLane="-83823403#2_0" departPos="5.10" departSpeed="0.00" departDelay="0.00" arrival="27036.00" arrivalLane="23015533_0" arrivalPos="110.79" arrivalSpeed="12.79" duration="29.00" routeLength="290.56" waitSteps="0" rerouteNo="1" devices="tripinfo_217202_217202_446 hbefa_217202_217202_446" vType="DEFAULT_VEHTYPE" vaporized="">
        <emissions CO_abs="887.231920" CO2_abs="73394.800248" HC_abs="22.313866" PMx_abs="8.121980" NOx_abs="151.047994" fuel_abs="29.261380"/>
    </tripinfo>
    <tripinfo id="103637_103637_397" depart="27000.00" departLane="145474196#1_0" departPos="5.10" departSpeed="0.00" departDelay="0.00" arrival="27037.00" arrivalLane="150039002#2_0" arrivalPos="249.40" arrivalSpeed="13.14" duration="37.00" routeLength="361.28" waitSteps="0" rerouteNo="1" devices="tripinfo_103637_103637_397 hbefa_103637_103637_397" vType="DEFAULT_VEHTYPE" vaporized="">
        <emissions CO_abs="1056.999245" CO2_abs="86345.221070" HC_abs="26.282304" PMx_abs="9.770832" NOx_abs="178.675552" fuel_abs="34.424515"/>
    </tripinfo>
    <tripinfo id="154499_154499_420" depart="27000.00" departLane="28542995#0_0" departPos="5.10" departSpeed="0.00" departDelay="0.00" arrival="27038.00" arrivalLane="23493260#4_0" arrivalPos="126.60" arrivalSpeed="12.90" duration="38.00" routeLength="435.19" waitSteps="0" rerouteNo="1" devices="tripinfo_154499_154499_420 hbefa_154499_154499_420" vType="DEFAULT_VEHTYPE" vaporized="">
        <emissions CO_abs="1007.477958" CO2_abs="93361.764419" HC_abs="27.120001" PMx_abs="9.615553" NOx_abs="187.855624" fuel_abs="37.221907"/>
    </tripinfo>
    <tripinfo id="238887_238887_451" depart="27010.00" departLane="-83823403#2_0" departPos="5.10" departSpeed="0.00" departDelay="0.00" arrival="27038.00" arrivalLane="23015533_0" arrivalPos="110.79" arrivalSpeed="12.71" duration="28.00" routeLength="290.56" waitSteps="0" rerouteNo="1" devices="tripinfo_238887_238887_451 hbefa_238887_238887_451" vType="DEFAULT_VEHTYPE" vaporized="">
        <emissions CO_abs="860.632815" CO2_abs="68791.350144" HC_abs="21.116949" PMx_abs="7.825192" NOx_abs="142.861737" fuel_abs="27.426055"/>
    </tripinfo>
    <tripinfo id="218769_218769_446" depart="27003.00" departLane="-55940134_0" departPos="5.10" departSpeed="0.00" departDelay="3.00" arrival="27040.00" arrivalLane="-144935692#1_1" arrivalPos="103.61" arrivalSpeed="13.21" duration="37.00" routeLength="447.77" waitSteps="0" rerouteNo="1" devices="tripinfo_218769_218769_446 hbefa_218769_218769_446" vType="DEFAULT_VEHTYPE" vaporized="">
        <emissions CO_abs="703.483662" CO2_abs="80185.500118" HC_abs="21.402759" PMx_abs="7.235014" NOx_abs="155.748961" fuel_abs="31.968742"/>
    </tripinfo>
    <tripinfo id="118681_118681_405" depart="27000.00" departLane="23471158#6_0" departPos="5.10" departSpeed="0.00" departDelay="0.00" arrival="27040.00" arrivalLane="32856811#2_1" arrivalPos="144.91" arrivalSpeed="13.03" duration="40.00" routeLength="447.44" waitSteps="0" rerouteNo="1" devices="tripinfo_118681_118681_405 hbefa_118681_118681_405" vType="DEFAULT_VEHTYPE" vaporized="">
        <emissions CO_abs="1299.476701" CO2_abs="102493.901244" HC_abs="31.267306" PMx_abs="11.886383" NOx_abs="214.287931" fuel_abs="40.862748"/>
    </tripinfo>
    <tripinfo id="171544_171544_426" depart="27000.00" departLane="187965762#1_0" departPos="5.10" departSpeed="0.00" departDelay="0.00" arrival="27040.00" arrivalLane="23800191#0_0" arrivalPos="143.94" arrivalSpeed="13.52" duration="40.00" routeLength="368.51" waitSteps="0" rerouteNo="1" devices="tripinfo_171544_171544_426 hbefa_171544_171544_426" vType="DEFAULT_VEHTYPE" vaporized="">
        <emissions CO_abs="691.186399" CO2_abs="70386.326279" HC_abs="20.296339" PMx_abs="6.887854" NOx_abs="138.308111" fuel_abs="28.061948"/>
    </tripinfo>
    <tripinfo id="138122_138122_412" depart="27009.00" departLane="131651824_0" departPos="5.10" departSpeed="0.00" departDelay="9.00" arrival="27040.00" arrivalLane="130875842_0" arrivalPos="81.21" arrivalSpeed="13.79" duration="31.00" routeLength="334.70" waitSteps="0" rerouteNo="1" devices="tripinfo_138122_138122_412 hbefa_138122_138122_412" vType="DEFAULT_VEHTYPE" vaporized="">
        <emissions CO_abs="1019.196585" CO2_abs="84589.987264" HC_abs="25.405567" PMx_abs="9.503733" NOx_abs="174.807682" fuel_abs="33.724731"/>
    </tripinfo>
    <tripinfo id="184987_184987_431" depart="27000.00" departLane="-186463490#0_0" departPos="5.10" departSpeed="0.00" departDelay="0.00" arrival="27042.00" arrivalLane="-144935692#1_1" arrivalPos="103.61" arrivalSpeed="13.40" duration="42.00" routeLength="500.46" waitSteps="0" rerouteNo="1" devices="tripinfo_184987_184987_431 hbefa_184987_184987_431" vType="DEFAULT_VEHTYPE" vaporized="">
        <emissions CO_abs="553.175577" CO2_abs="80788.325456" HC_abs="19.998721" PMx_abs="6.766457" NOx_abs="151.776038" fuel_abs="32.209083"/>
    </tripinfo>
    <tripinfo id="211099_211099_442" depart="27013.00" departLane="166155712#0_0" departPos="5.10" departSpeed="0.00" departDelay="0.00" arrival="27042.00" arrivalLane="33469672_0" arrivalPos="142.78" arrivalSpeed="13.22" duration="29.00" routeLength="317.06" waitSteps="0" rerouteNo="1" devices="tripinfo_211099_211099_442 hbefa_211099_211099_442" vType="DEFAULT_VEHTYPE" vaporized="">
        <emissions CO_abs="757.455479" CO2_abs="69344.083782" HC_abs="20.261662" PMx_abs="7.121713" NOx_abs="139.731901" fuel_abs="27.646425"/>
    </tripinfo>
    <tripinfo id="104726_104726_398" depart="27000.00" departLane="23471158#5_0" departPos="5.10" departSpeed="0.00" departDelay="0.00" arrival="27043.00" arrivalLane="32856811#2_1" arrivalPos="144.91" arrivalSpeed="13.05" duration="43.00" routeLength="458.31" waitSteps="0" rerouteNo="1" devices="tripinfo_104726_104726_398 hbefa_104726_104726_398" vType="DEFAULT_VEHTYPE" vaporized="">
        <emissions CO_abs="1061.229263" CO2_abs="97002.432899" HC_abs="28.311945" PMx_abs="10.077037" NOx_abs="195.659088" fuel_abs="38.673387"/>
    </tripinfo>
    <tripinfo id="224931_224931_449" depart="27026.00" departLane="-28523795_0" departPos="5.10" departSpeed="0.00" departDelay="0.00" arrival="27043.00" arrivalLane="-28523795_0" arrivalPos="192.02" arrivalSpeed="13.09" duration="17.00" routeLength="186.92" waitSteps="0" rerouteNo="1" devices="tripinfo_224931_224931_449 hbefa_224931_224931_449" vType="DEFAULT_VEHTYPE" vaporized="">
        <emissions CO_abs="479.672331" CO2_abs="45633.327534" HC_abs="13.096429" PMx_abs="4.734861" NOx_abs="91.630663" fuel_abs="18.193310"/>
    </tripinfo>
    <tripinfo id="197472_197472_436" depart="27006.00" departLane="23800191#2_0" departPos="5.10" departSpeed="0.00" departDelay="6.00" arrival="27043.00" arrivalLane="130875842_0" arrivalPos="81.21" arrivalSpeed="13.37" duration="37.00" routeLength="373.11" waitSteps="0" rerouteNo="1" devices="tripinfo_197472_197472_436 hbefa_197472_197472_436" vType="DEFAULT_VEHTYPE" vaporized="">
        <emissions CO_abs="1013.803341" CO2_abs="80009.746748" HC_abs="24.893530" PMx_abs="9.062502" NOx_abs="166.173788" fuel_abs="31.898655"/>
    </tripinfo>
    <tripinfo id="244420_244420_453" depart="27015.00" departLane="-165515969#3_0" departPos="5.10" departSpeed="0.00" departDelay="0.00" arrival="27043.00" arrivalLane="-165511531#0_0" arrivalPos="53.73" arrivalSpeed="13.21" duration="28.00" routeLength="345.81" waitSteps="0" rerouteNo="2" devices="tripinfo_244420_244420_453 hbefa_244420_244420_453" vType="DEFAULT_VEHTYPE" vaporized="">
        <emissions CO_abs="2382.200698" CO2_abs="141246.622333" HC_abs="47.936601" PMx_abs="18.743674" NOx_abs="315.592232" fuel_abs="56.312884"/>
    </tripinfo>
    <tripinfo id="212327_212327_442" depart="27014.00" departLane="198147972_0" departPos="5.10" departSpeed="0.00" departDelay="0.00" arrival="27043.00" arrivalLane="4353628#1_0" arrivalPos="68.95" arrivalSpeed="13.57" duration="29.00" routeLength="339.08" waitSteps="0" rerouteNo="1" devices="tripinfo_212327_212327_442 hbefa_212327_212327_442" vType="DEFAULT_VEHTYPE" vaporized="">
        <emissions CO_abs="674.532310" CO2_abs="64687.911691" HC_abs="18.375707" PMx_abs="6.596392" NOx_abs="129.711871" fuel_abs="25.790084"/>
    </tripinfo>
    <tripinfo id="245947_245947_454" depart="27016.00" departLane="-83823403#2_0" departPos="5.10" departSpeed="0.00" departDelay="0.00" arrival="27045.00" arrivalLane="23015533_0" arrivalPos="110.79" arrivalSpeed="12.59" duration="29.00" routeLength="290.56" waitSteps="0" rerouteNo="1" devices="tripinfo_245947_245947_454 hbefa_245947_245947_454" vType="DEFAULT_VEHTYPE" vaporized="">
        <emissions CO_abs="865.642612" CO2_abs="73261.505299" HC_abs="21.977780" PMx_abs="8.103431" NOx_abs="150.501357" fuel_abs="29.208239"/>
    </tripinfo>
    <tripinfo id="140107_140107_414" depart="27000.00" departLane="154755117_0" departPos="5.10" departSpeed="0.00" departDelay="0.00" arrival="27046.00" arrivalLane="23800191#0_0" arrivalPos="143.94" arrivalSpeed="13.72" duration="46.00" routeLength="212.88" waitSteps="18" rerouteNo="1" devices="tripinfo_140107_140107_414 hbefa_140107_140107_414" vType="DEFAULT_VEHTYPE" vaporized="">
        <emissions CO_abs="718.687308" CO2_abs="63283.634053" HC_abs="21.966650" PMx_abs="6.062284" NOx_abs="122.008685" fuel_abs="25.230209"/>
    </tripinfo>
    <tripinfo id="95606_95606_394" depart="27000.00" departLane="8225148_0" departPos="5.10" departSpeed="0.00" departDelay="0.00" arrival="27047.00" arrivalLane="145261451_0" arrivalPos="86.92" arrivalSpeed="13.38" duration="47.00" routeLength="515.94" waitSteps="0" rerouteNo="1" devices="tripinfo_95606_95606_394 hbefa_95606_95606_394" vType="DEFAULT_VEHTYPE" vaporized="">
        <emissions CO_abs="1328.079124" CO2_abs="116571.580858" HC_abs="34.100014" PMx_abs="12.634240" NOx_abs="238.079979" fuel_abs="46.475306"/>
    </tripinfo>
    <tripinfo id="123467_123467_406" depart="27008.00" departLane="23471158#6_0" departPos="5.10" departSpeed="0.00" departDelay="8.00" arrival="27047.00" arrivalLane="32856811#2_1" arrivalPos="144.91" arrivalSpeed="12.59" duration="39.00" routeLength="447.44" waitSteps="0" rerouteNo="1" devices="tripinfo_123467_123467_406 hbefa_123467_123467_406" vType="DEFAULT_VEHTYPE" vaporized="">
        <emissions CO_abs="1246.077792" CO2_abs="101842.902761" HC_abs="30.561146" PMx_abs="11.388061" NOx_abs="211.075944" fuel_abs="40.603207"/>
    </tripinfo>
    <tripinfo id="244003_244003_453" depart="27029.00" departLane="-28523795_0" departPos="5.10" departSpeed="0.00" departDelay="0.00" arrival="27047.00" arrivalLane="-28523795_0" arrivalPos="192.02" arrivalSpeed="13.19" duration="18.00" routeLength="186.92" waitSteps="0" rerouteNo="1" devices="tripinfo_244003_244003_453 hbefa_244003_244003_453" vType="DEFAULT_VEHTYPE" vaporized="">
        <emissions CO_abs="484.552489" CO2_abs="45755.819006" HC_abs="13.270335" PMx_abs="4.579758" NOx_abs="91.494446" fuel_abs="18.242145"/>
    </tripinfo>
    <tripinfo id="227630_227630_450" depart="27017.00" departLane="166155712#0_0" departPos="5.10" departSpeed="0.00" departDelay="0.00" arrival="27047.00" arrivalLane="33469672_0" arrivalPos="142.78" arrivalSpeed="13.77" duration="30.00" routeLength="317.06" waitSteps="0" rerouteNo="1" devices="tripinfo_227630_227630_450 hbefa_227630_227630_450" vType="DEFAULT_VEHTYPE" vaporized="">
        <emissions CO_abs="870.805604" CO2_abs="73896.443492" HC_abs="22.161606" PMx_abs="8.042237" NOx_abs="151.479348" fuel_abs="29.461379"/>
    </tripinfo>
    <tripinfo id="221885_221885_448" depart="27017.00" departLane="-175607927#0_0" departPos="5.10" departSpeed="0.00" departDelay="0.00" arrival="27047.00" arrivalLane="-29214406_0" arrivalPos="179.38" arrivalSpeed="13.39" duration="30.00" routeLength="317.06" waitSteps="0" rerouteNo="1" devices="tripinfo_221885_221885_448 hbefa_221885_221885_448" vType="DEFAULT_VEHTYPE" vaporized="">