<?xml version="1.0" encoding="UTF-8"?>

<!-- generated on Mon Feb 24 09:03:37 2014 by SUMO sumo Version dev-SVN-r15641
<?xml version="1.0" encoding="UTF-8"?>

<configuration xmlns:xsi="http://www.w3.org/2001/XMLSchema-instance" xsi:noNamespaceSchemaLocation="http://sumo-sim.org/xsd/sumoConfiguration.xsd">

    <input>
        <net-file value="data/map.net.xml"/>
        <route-files value="data/map.rou.xml"/>
    </input>

    <output>
        <tripinfo-output value="data/maptripinfo.out.xml"/>
        <save-state.prefix value="data/state"/>
    </output>

    <time>
        <begin value="25200"/>
        <end value="26100"/>
    </time>

    <processing>
        <route-steps value="200"/>
        <scale value="0.8"/>
        <time-to-teleport value="300"/>
        <lanechange.allow-swap value="true"/>
    </processing>

    <report>
        <verbose value="true"/>
        <no-warnings value="false"/>
        <no-step-log value="true"/>
    </report>

    <emissions>
        <device.hbefa.probability value="1"/>
    </emissions>

    <routing>
        <device.rerouting.probability value="1"/>
    </routing>

</configuration>
-->

<tripinfos>
    <tripinfo id="160035_160035_421" depart="25200.00" departLane="8225127_0" departPos="5.10" departSpeed="0.00" departDelay="0.00" arrival="25206.00" arrivalLane="8225127_0" arrivalPos="38.87" arrivalSpeed="11.02" duration="6.00" routeLength="33.77" waitSteps="0" rerouteNo="1" devices="tripinfo_160035_160035_421 routing_160035_160035_421 hbefa_160035_160035_421" vType="DEFAULT_VEHTYPE" vaporized="">
        <emissions CO_abs="298.267373" CO2_abs="21255.438012" HC_abs="7.203350" PMx_abs="2.507844" NOx_abs="44.574985" fuel_abs="8.474213"/>
    </tripinfo>
    <tripinfo id="146065_146065_416" depart="25200.00" departLane="185767959#0_0" departPos="5.10" departSpeed="0.00" departDelay="0.00" arrival="25210.00" arrivalLane="9207798_1" arrivalPos="76.33" arrivalSpeed="19.98" duration="10.00" routeLength="90.29" waitSteps="0" rerouteNo="1" devices="tripinfo_146065_146065_416 routing_146065_146065_416 hbefa_146065_146065_416" vType="DEFAULT_VEHTYPE" vaporized="">
        <emissions CO_abs="1022.714390" CO2_abs="62158.551235" HC_abs="21.183458" PMx_abs="8.360090" NOx_abs="138.218604" fuel_abs="24.781660"/>
    </tripinfo>
    <tripinfo id="135816_135816_411" depart="25200.00" departLane="23471158#6_0" departPos="5.10" departSpeed="0.00" departDelay="0.00" arrival="25218.00" arrivalLane="23471158#9_0" arrivalPos="213.75" arrivalSpeed="27.32" duration="18.00" routeLength="308.43" waitSteps="0" rerouteNo="1" devices="tripinfo_135816_135816_411 routing_135816_135816_411 hbefa_135816_135816_411" vType="DEFAULT_VEHTYPE" vaporized="">
        <emissions CO_abs="2188.022041" CO2_abs="127620.991870" HC_abs="42.646764" PMx_abs="16.322704" NOx_abs="285.382604" fuel_abs="50.880591"/>
    </tripinfo>
    <tripinfo id="106746_106746_399" depart="25200.00" departLane="180723491_0" departPos="5.10" departSpeed="0.00" departDelay="0.00" arrival="25219.00" arrivalLane="154743410#0_0" arrivalPos="108.34" arrivalSpeed="19.72" duration="19.00" routeLength="223.23" waitSteps="0" rerouteNo="1" devices="tripinfo_106746_106746_399 routing_106746_106746_399 hbefa_106746_106746_399" vType="DEFAULT_VEHTYPE" vaporized="">
        <emissions CO_abs="1487.159171" CO2_abs="95073.264569" HC_abs="31.642517" PMx_abs="12.218633" NOx_abs="208.463215" fuel_abs="37.904251"/>
    </tripinfo>
    <tripinfo id="100948_100948_396" depart="25200.00" departLane="154743410#2_0" departPos="5.10" departSpeed="0.00" departDelay="0.00" arrival="25221.00" arrivalLane="9207798_1" arrivalPos="76.33" arrivalSpeed="18.93" duration="21.00" routeLength="167.61" waitSteps="0" rerouteNo="1" devices="tripinfo_100948_100948_396 routing_100948_100948_396 hbefa_100948_100948_396" vType="DEFAULT_VEHTYPE" vaporized="">
        <emissions CO_abs="1414.779323" CO2_abs="90462.724432" HC_abs="30.434979" PMx_abs="11.877135" NOx_abs="198.311827" fuel_abs="36.066095"/>
    </tripinfo>
    <tripinfo id="137129_137129_412" depart="25207.00" departLane="154755085#0_0" departPos="5.10" departSpeed="0.00" departDelay="0.00" arrival="25223.00" arrivalLane="154755085#1_0" arrivalPos="144.95" arrivalSpeed="13.80" duration="16.00" routeLength="164.24" waitSteps="0" rerouteNo="1" devices="tripinfo_137129_137129_412 routing_137129_137129_412 hbefa_137129_137129_412" vType="DEFAULT_VEHTYPE" vaporized="">
        <emissions CO_abs="528.155289" CO2_abs="47042.389244" HC_abs="14.004176" PMx_abs="4.812951" NOx_abs="94.923848" fuel_abs="18.755080"/>
    </tripinfo>
    <tripinfo id="106717_106717_399" depart="25200.00" departLane="-154755100#1_0" departPos="5.10" departSpeed="0.00" departDelay="0.00" arrival="25224.00" arrivalLane="-154755100#0_0" arrivalPos="171.42" arrivalSpeed="12.73" duration="24.00" routeLength="263.89" waitSteps="0" rerouteNo="1" devices="tripinfo_106717_106717_399 routing_106717_106717_399 hbefa_106717_106717_399" vType="DEFAULT_VEHTYPE" vaporized="">
        <emissions CO_abs="500.204941" CO2_abs="54751.277516" HC_abs="15.021393" PMx_abs="5.087095" NOx_abs="106.787836" fuel_abs="21.828501"/>
    </tripinfo>
    <tripinfo id="71540_71540_383" depart="25200.00" departLane="150031262#0_0" departPos="5.10" departSpeed="0.00" departDelay="0.00" arrival="25229.00" arrivalLane="145575263_1" arrivalPos="260.32" arrivalSpeed="13.77" duration="29.00" routeLength="322.07" waitSteps="0" rerouteNo="1" devices="tripinfo_71540_71540_383 routing_71540_71540_383 hbefa_71540_71540_383" vType="DEFAULT_VEHTYPE" vaporized="">
        <emissions CO_abs="826.761891" CO2_abs="70977.218832" HC_abs="21.112075" PMx_abs="7.531810" NOx_abs="144.956897" fuel_abs="28.297531"/>
    </tripinfo>
    <tripinfo id="168852_168852_425" depart="25221.00" departLane="160971552_0" departPos="5.10" departSpeed="0.00" departDelay="4.00" arrival="25230.00" arrivalLane="160971552_0" arrivalPos="96.86" arrivalSpeed="18.62" duration="9.00" routeLength="91.76" waitSteps="0" rerouteNo="1" devices="tripinfo_168852_168852_425 routing_168852_168852_425 hbefa_168852_168852_425" vType="DEFAULT_VEHTYPE" vaporized="">
        <emissions CO_abs="875.903782" CO2_abs="54556.335117" HC_abs="18.375321" PMx_abs="7.207844" NOx_abs="120.551473" fuel_abs="21.750773"/>
    </tripinfo>
    <tripinfo id="95486_95486_394" depart="25200.00" departLane="23799989#0_0" departPos="5.10" departSpeed="0.00" departDelay="0.00" arrival="25231.00" arrivalLane="4400200_0" arrivalPos="166.23" arrivalSpeed="13.73" duration="31.00" routeLength="289.53" waitSteps="0" rerouteNo="1" devices="tripinfo_95486_95486_394 routing_95486_95486_394 hbefa_95486_95486_394" vType="DEFAULT_VEHTYPE" vaporized="">
        <emissions CO_abs="522.511170" CO2_abs="56666.100425" HC_abs="15.893483" PMx_abs="5.355501" NOx_abs="110.172455" fuel_abs="22.591907"/>
    </tripinfo>
    <tripinfo id="102085_102085_396" depart="25202.00" departLane="154743410#2_0" departPos="5.10" departSpeed="0.00" departDelay="2.00" arrival="25232.00" arrivalLane="9207798_1" arrivalPos="76.33" arrivalSpeed="16.91" duration="30.00" routeLength="167.61" waitSteps="8" rerouteNo="1" devices="tripinfo_102085_102085_396 routing_102085_102085_396 hbefa_102085_102085_396" vType="DEFAULT_VEHTYPE" vaporized="">
        <emissions CO_abs="1334.905891" CO2_abs="85401.564047" HC_abs="29.212929" PMx_abs="11.165138" NOx_abs="186.343055" fuel_abs="34.048284"/>
    </tripinfo>
    <tripinfo id="116829_116829_404" depart="25200.00" departLane="4380937#2_0" departPos="5.10" departSpeed="0.00" departDelay="0.00" arrival="25232.00" arrivalLane="145575263_1" arrivalPos="260.32" arrivalSpeed="13.19" duration="32.00" routeLength="357.91" waitSteps="0" rerouteNo="1" devices="tripinfo_116829_116829_404 routing_116829_116829_404 hbefa_116829_116829_404" vType="DEFAULT_VEHTYPE" vaporized="">
        <emissions CO_abs="813.599919" CO2_abs="74687.719152" HC_abs="21.665463" PMx_abs="7.709369" NOx_abs="150.735052" fuel_abs="29.776851"/>
    </tripinfo>
    <tripinfo id="145303_145303_416" depart="25208.00" departLane="-200671461_0" departPos="5.10" departSpeed="0.00" departDelay="0.00" arrival="25232.00" arrivalLane="-50061433_0" arrivalPos="60.25" arrivalSpeed="13.04" duration="24.00" routeLength="212.51" waitSteps="0" rerouteNo="1" devices="tripinfo_145303_145303_416 routing_145303_145303_416 hbefa_145303_145303_416" vType="DEFAULT_VEHTYPE" vaporized="">
        <emissions CO_abs="1083.332802" CO2_abs="81171.627682" HC_abs="25.688823" PMx_abs="9.681497" NOx_abs="171.103851" fuel_abs="32.361876"/>
    </tripinfo>
    <tripinfo id="136116_136116_411" depart="25219.00" departLane="154755085#0_0" departPos="5.10" departSpeed="0.00" departDelay="0.00" arrival="25235.00" arrivalLane="154755085#1_0" arrivalPos="144.95" arrivalSpeed="13.16" duration="16.00" routeLength="164.24" waitSteps="0" rerouteNo="1" devices="tripinfo_136116_136116_411 routing_136116_136116_411 hbefa_136116_136116_411" vType="DEFAULT_VEHTYPE" vaporized="">
        <emissions CO_abs="456.120708" CO2_abs="39312.113353" HC_abs="11.916370" PMx_abs="4.150583" NOx_abs="79.833968" fuel_abs="15.673136"/>
    </tripinfo>
    <tripinfo id="117072_117072_404" depart="25215.00" departLane="185767958#1_0" departPos="5.10" departSpeed="0.00" departDelay="15.00" arrival="25240.00" arrivalLane="36590979#0-AddedOffRampEdge_0" arrivalPos="103.44" arrivalSpeed="21.61" duration="25.00" routeLength="430.18" waitSteps="0" rerouteNo="1" devices="tripinfo_117072_117072_404 routing_117072_117072_404 hbefa_117072_117072_404" vType="DEFAULT_VEHTYPE" vaporized="">
        <emissions CO_abs="1420.318867" CO2_abs="103774.507673" HC_abs="31.044539" PMx_abs="11.489751" NOx_abs="219.991705" fuel_abs="41.373360"/>
    </tripinfo>
    <tripinfo id="149330_149330_417" depart="25200.00" departLane="154755085#0_0" departPos="5.10" departSpeed="0.00" departDelay="0.00" arrival="25241.00" arrivalLane="4400311#0_0" arrivalPos="280.07" arrivalSpeed="8.23" duration="41.00" routeLength="299.36" waitSteps="0" rerouteNo="1" devices="tripinfo_149330_149330_417 routing_149330_149330_417 hbefa_149330_149330_417" vType="DEFAULT_VEHTYPE" vaporized="">
        <emissions CO_abs="282.181124" CO2_abs="46181.691407" HC_abs="12.531989" PMx_abs="3.565114" NOx_abs="82.992340" fuel_abs="18.411927"/>
    </tripinfo>
    <tripinfo id="161230_161230_421" depart="25228.00" departLane="28557537#1_0" departPos="5.10" departSpeed="0.00" departDelay="0.00" arrival="25241.00" arrivalLane="28557537#1_0" arrivalPos="170.84" arrivalSpeed="24.54" duration="13.00" routeLength="165.74" waitSteps="0" rerouteNo="1" devices="tripinfo_161230_161230_421 routing_161230_161230_421 hbefa_161230_161230_421" vType="DEFAULT_VEHTYPE" vaporized="">
        <emissions CO_abs="1534.908363" CO2_abs="92052.527678" HC_abs="31.029848" PMx_abs="12.055064" NOx_abs="205.051492" fuel_abs="36.699946"/>
    </tripinfo>
    <tripinfo id="113896_113896_402" depart="25203.00" departLane="4380937#0_0" departPos="5.10" departSpeed="0.00" departDelay="3.00" arrival="25243.00" arrivalLane="145575263_0" arrivalPos="260.32" arrivalSpeed="12.75" duration="40.00" routeLength="485.13" waitSteps="0" rerouteNo="1" devices="tripinfo_113896_113896_402 routing_113896_113896_402 hbefa_113896_113896_402" vType="DEFAULT_VEHTYPE" vaporized="">
        <emissions CO_abs="791.093967" CO2_abs="76018.809496" HC_abs="21.481514" PMx_abs="7.459805" NOx_abs="152.064985" fuel_abs="30.307541"/>
    </tripinfo>
    <tripinfo id="130658_130658_409" depart="25218.00" departLane="23799644_0" departPos="5.10" departSpeed="0.00" departDelay="0.00" arrival="25243.00" arrivalLane="4400449#0_0" arrivalPos="32.06" arrivalSpeed="13.52" duration="25.00" routeLength="218.58" waitSteps="0" rerouteNo="1" devices="tripinfo_130658_130658_409 routing_130658_130658_409 hbefa_130658_130658_409" vType="DEFAULT_VEHTYPE" vaporized="">
        <emissions CO_abs="849.905703" CO2_abs="63537.376157" HC_abs="20.496650" PMx_abs="7.352984" NOx_abs="132.951865" fuel_abs="25.331370"/>
    </tripinfo>
    <tripinfo id="147897_147897_416" depart="25223.00" departLane="23015529#0_0" departPos="5.10" departSpeed="0.00" departDelay="0.00" arrival="25244.00" arrivalLane="37866521#1_0" arrivalPos="52.00" arrivalSpeed="13.62" duration="21.00" routeLength="231.77" waitSteps="0" rerouteNo="1" devices="tripinfo_147897_147897_416 routing_147897_147897_416 hbefa_147897_147897_416" vType="DEFAULT_VEHTYPE" vaporized="">
        <emissions CO_abs="519.311036" CO2_abs="53074.306391" HC_abs="14.868098" PMx_abs="5.248509" NOx_abs="105.022637" fuel_abs="21.159917"/>
    </tripinfo>
    <tripinfo id="148292_148292_417" depart="25200.00" departLane="69366484#0_0" departPos="5.10" departSpeed="0.00" departDelay="0.00" arrival="25245.00" arrivalLane="23493260#7_0" arrivalPos="59.96" arrivalSpeed="12.76" duration="45.00" routeLength="451.35" waitSteps="0" rerouteNo="1" devices="tripinfo_148292_148292_417 routing_148292_148292_417 hbefa_148292_148292_417" vType="DEFAULT_VEHTYPE" vaporized="">
        <emissions CO_abs="981.356995" CO2_abs="95649.477788" HC_abs="27.504114" PMx_abs="9.756738" NOx_abs="190.490191" fuel_abs="38.133981"/>
    </tripinfo>
    <tripinfo id="106411_106411_399" depart="25204.00" departLane="154743410#2_0" departPos="5.10" departSpeed="0.00" departDelay="4.00" arrival="25245.00" arrivalLane="9207798_1" arrivalPos="76.33" arrivalSpeed="17.83" duration="41.00" routeLength="167.61" waitSteps="12" rerouteNo="1" devices="tripinfo_106411_106411_399 routing_106411_106411_399 hbefa_106411_106411_399" vType="DEFAULT_VEHTYPE" vaporized="">
        <emissions CO_abs="1327.988999" CO2_abs="88155.206852" HC_abs="29.836231" PMx_abs="11.038579" NOx_abs="189.845684" fuel_abs="35.146120"/>
    </tripinfo>
    <tripinfo id="147145_147145_416" depart="25200.00" departLane="154755073#4_0" departPos="5.10" departSpeed="0.00" departDelay="0.00" arrival="25246.00" arrivalLane="2837877_0" arrivalPos="210.13" arrivalSpeed="8.16" duration="46.00" routeLength="336.64" waitSteps="0" rerouteNo="1" devices="tripinfo_147145_147145_416 routing_147145_147145_416 hbefa_147145_147145_416" vType="DEFAULT_VEHTYPE" vaporized="">
        <emissions CO_abs="335.558602" CO2_abs="55997.008678" HC_abs="15.123808" PMx_abs="4.307724" NOx_abs="100.352591" fuel_abs="22.325143"/>
    </tripinfo>
    <tripinfo id="114306_114306_402" depart="25200.00" departLane="36564599_0" departPos="5.10" departSpeed="0.00" departDelay="0.00" arrival="25247.00" arrivalLane="36564599_0" arrivalPos="101.75" arrivalSpeed="2.48" duration="47.00" routeLength="96.65" waitSteps="0" rerouteNo="1" devices="tripinfo_114306_114306_402 routing_114306_114306_402 hbefa_114306_114306_402" vType="DEFAULT_VEHTYPE" vaporized="">
        <emissions CO_abs="167.364352" CO2_abs="23411.752580" HC_abs="9.004371" PMx_abs="1.375459" NOx_abs="37.802094" fuel_abs="9.333901"/>
    </tripinfo>
    <tripinfo id="105046_105046_398" depart="25200.00" departLane="36454807#3-AddedOnRampEdge_0" departPos="5.10" departSpeed="0.00" departDelay="0.00" arrival="25248.00" arrivalLane="23471158#9_0" arrivalPos="213.75" arrivalSpeed="27.66" duration="48.00" routeLength="496.50" waitSteps="0" rerouteNo="1" devices="tripinfo_105046_105046_398 routing_105046_105046_398 hbefa_105046_105046_398" vType="DEFAULT_VEHTYPE" vaporized="">
        <emissions CO_abs="2985.510722" CO2_abs="185045.896087" HC_abs="61.790265" PMx_abs="23.119430" NOx_abs="405.879376" fuel_abs="73.775014"/>
    </tripinfo>
    <tripinfo id="145277_145277_416" depart="25203.00" departLane="145474195#0_0" departPos="5.10" departSpeed="0.00" departDelay="3.00" arrival="25250.00" arrivalLane="145575263_0" arrivalPos="260.32" arrivalSpeed="13.16" duration="47.00" routeLength="585.88" waitSteps="0" rerouteNo="1" devices="tripinfo_145277_145277_416 routing_145277_145277_416 hbefa_145277_145277_416" vType="DEFAULT_VEHTYPE" vaporized="">
        <emissions CO_abs="660.309171" CO2_abs="86514.202487" HC_abs="21.842179" PMx_abs="7.868993" NOx_abs="166.012266" fuel_abs="34.491904"/>
    </tripinfo>
    <tripinfo id="145302_145302_416" depart="25215.00" departLane="150031221_0" departPos="5.10" departSpeed="0.00" departDelay="0.00" arrival="25252.00" arrivalLane="150031221_0" arrivalPos="279.03" arrivalSpeed="7.06" duration="37.00" routeLength="273.93" waitSteps="0" rerouteNo="1" devices="tripinfo_145302_145302_416 routing_145302_145302_416 hbefa_145302_145302_416" vType="DEFAULT_VEHTYPE" vaporized="">
        <emissions CO_abs="282.221853" CO2_abs="47711.175637" HC_abs="12.848078" PMx_abs="3.674044" NOx_abs="85.465902" fuel_abs="19.021709"/>
    </tripinfo>
    <tripinfo id="122923_122923_406" depart="25200.00" departLane="36454807#1_0" departPos="5.10" departSpeed="0.00" departDelay="0.00" arrival="25252.00" arrivalLane="23471158#9_0" arrivalPos="213.75" arrivalSpeed="27.69" duration="52.00" routeLength="534.80" waitSteps="0" rerouteNo="1" devices="tripinfo_122923_122923_406 routing_122923_122923_406 hbefa_122923_122923_406" vType="DEFAULT_VEHTYPE" vaporized="">
        <emissions CO_abs="3126.478017" CO2_abs="195012.822380" HC_abs="65.059935" PMx_abs="24.234310" NOx_abs="426.687703" fuel_abs="77.748678"/>
    </tripinfo>
    <tripinfo id="136568_136568_411" depart="25232.00" departLane="8225144#1_0" departPos="5.10" departSpeed="0.00" departDelay="0.00" arrival="25252.00" arrivalLane="23015778_0" arrivalPos="93.11" arrivalSpeed="13.46" duration="20.00" routeLength="223.78" waitSteps="0" rerouteNo="1" devices="tripinfo_136568_136568_411 routing_136568_136568_411 hbefa_136568_136568_411" vType="DEFAULT_VEHTYPE" vaporized="">
        <emissions CO_abs="570.299466" CO2_abs="46704.268537" HC_abs="14.244557" PMx_abs="5.191513" NOx_abs="96.327245" fuel_abs="18.620275"/>
    </tripinfo>
    <tripinfo id="108143_108143_400" depart="25221.00" departLane="23799644_0" departPos="5.10" departSpeed="0.00" departDelay="0.00" arrival="25253.00" arrivalLane="64487982#4_0" arrivalPos="68.97" arrivalSpeed="7.07" duration="32.00" routeLength="255.49" waitSteps="0" rerouteNo="1" devices="tripinfo_108143_108143_400 routing_108143_108143_400 hbefa_108143_108143_400" vType="DEFAULT_VEHTYPE" vaporized="">
        <emissions CO_abs="626.345684" CO2_abs="58646.011836" HC_abs="17.828736" PMx_abs="6.012267" NOx_abs="116.378968" fuel_abs="23.381260"/>
    </tripinfo>
    <tripinfo id="106412_106412_399" depart="25200.00" departLane="4380937#0_0" departPos="5.10" departSpeed="0.00" departDelay="0.00" arrival="25255.00" arrivalLane="145575263_1" arrivalPos="260.32" arrivalSpeed="13.41" duration="55.00" routeLength="481.40" waitSteps="10" rerouteNo="1" devices="tripinfo_106412_106412_399 routing_106412_106412_399 hbefa_106412_106412_399" vType="DEFAULT_VEHTYPE" vaporized="">
        <emissions CO_abs="1073.173211" CO2_abs="101248.022398" HC_abs="29.294571" PMx_abs="10.251090" NOx_abs="202.712306" fuel_abs="40.366039"/>
    </tripinfo>
    <tripinfo id="109689_109689_401" depart="25207.00" departLane="154743410#2_0" departPos="5.10" departSpeed="0.00" departDelay="7.00" arrival="25257.00" arrivalLane="9207798_1" arrivalPos="76.33" arrivalSpeed="17.93" duration="50.00" routeLength="167.61" waitSteps="20" rerouteNo="1" devices="tripinfo_109689_109689_401 routing_109689_109689_401 hbefa_109689_109689_401" vType="DEFAULT_VEHTYPE" vaporized="">
        <emissions CO_abs="1555.884333" CO2_abs="102122.260194" HC_abs="36.248198" PMx_abs="12.723938" NOx_abs="217.748111" fuel_abs="40.714563"/>
    </tripinfo>
    <tripinfo id="149028_149028_417" depart="25233.00" departLane="-200671461_0" departPos="5.10" departSpeed="0.00" departDelay="0.00" arrival="25257.00" arrivalLane="-22873531#1_0" arrivalPos="92.66" arrivalSpeed="13.07" duration="24.00" routeLength="244.92" waitSteps="0" rerouteNo="1" devices="tripinfo_149028_149028_417 routing_149028_149028_417 hbefa_149028_149028_417" vType="DEFAULT_VEHTYPE" vaporized="">
        <emissions CO_abs="959.847089" CO2_abs="71135.266348" HC_abs="22.488822" PMx_abs="8.524717" NOx_abs="150.496230" fuel_abs="28.360535"/>
    </tripinfo>
    <tripinfo id="155268_155268_420" depart="25200.00" departLane="150039002#2_0" departPos="5.10" departSpeed="0.00" departDelay="0.00" arrival="25257.00" arrivalLane="36590979#4_0" arrivalPos="41.97" arrivalSpeed="21.84" duration="57.00" routeLength="538.03" waitSteps="13" rerouteNo="1" devices="tripinfo_155268_155268_420 routing_155268_155268_420 hbefa_155268_155268_420" vType="DEFAULT_VEHTYPE" vaporized="">
        <emissions CO_abs="1900.460839" CO2_abs="133227.781458" HC_abs="42.142957" PMx_abs="15.798019" NOx_abs="284.982936" fuel_abs="53.115897"/>
    </tripinfo>
    <tripinfo id="109590_109590_401" depart="25202.00" departLane="150031205#1_0" departPos="5.10" departSpeed="0.00" departDelay="2.00" arrival="25258.00" arrivalLane="145575263_1" arrivalPos="260.32" arrivalSpeed="13.81" duration="56.00" routeLength="682.40" waitSteps="0" rerouteNo="1" devices="tripinfo_109590_109590_401 routing_109590_109590_401 hbefa_109590_109590_401" vType="DEFAULT_VEHTYPE" vaporized="">
        <emissions CO_abs="1046.180629" CO2_abs="114798.053077" HC_abs="30.790854" PMx_abs="10.700330" NOx_abs="224.879026" fuel_abs="45.768240"/>
    </tripinfo>
    <tripinfo id="87270_87270_391" depart="25203.00" departLane="36454807#3-AddedOnRampEdge_0" departPos="5.10" departSpeed="0.00" departDelay="3.00" arrival="25258.00" arrivalLane="23471158#9_0" arrivalPos="213.75" arrivalSpeed="27.74" duration="55.00" routeLength="483.75" waitSteps="0" rerouteNo="1" devices="tripinfo_87270_87270_391 routing_87270_87270_391 hbefa_87270_87270_391" vType="DEFAULT_VEHTYPE" vaporized="">
        <emissions CO_abs="3235.578314" CO2_abs="204962.672917" HC_abs="68.777283" PMx_abs="25.582093" NOx_abs="447.092436" fuel_abs="81.715500"/>
    </tripinfo>
    <tripinfo id="141739_141739_415" depart="25200.00" departLane="23471151#1_0" departPos="5.10" departSpeed="0.00" departDelay="0.00" arrival="25259.00" arrivalLane="8225102_0" arrivalPos="87.82" arrivalSpeed="8.22" duration="59.00" routeLength="732.25" waitSteps="0" rerouteNo="1" devices="tripinfo_141739_141739_415 routing_141739_141739_415 hbefa_141739_141739_415" vType="DEFAULT_VEHTYPE" vaporized="">
        <emissions CO_abs="2543.370649" CO2_abs="185893.372655" HC_abs="57.374463" PMx_abs="21.549260" NOx_abs="393.962938" fuel_abs="74.112878"/>
    </tripinfo>
    <tripinfo id="128656_128656_408" depart="25202.00" departLane="36454807#3-AddedOnRampEdge_0" departPos="5.10" departSpeed="0.00" departDelay="2.00" arrival="25260.00" arrivalLane="129833339#1_0" arrivalPos="41.68" arrivalSpeed="12.81" duration="58.00" routeLength="728.25" waitSteps="0" rerouteNo="1" devices="tripinfo_128656_128656_408 routing_128656_128656_408 hbefa_128656_128656_408" vType="DEFAULT_VEHTYPE" vaporized="">
        <emissions CO_abs="3216.072738" CO2_abs="204534.778063" HC_abs="67.437521" PMx_abs="26.181532" NOx_abs="449.022090" fuel_abs="81.544905"/>
    </tripinfo>
    <tripinfo id="116049_116049_403" depart="25205.00" departLane="150031205#1_0" departPos="5.10" departSpeed="0.00" departDelay="5.00" arrival="25261.00" arrivalLane="145575263_1" arrivalPos="260.32" arrivalSpeed="12.63" duration="56.00" routeLength="682.40" waitSteps="0" rerouteNo="1" devices="tripinfo_116049_116049_403 routing_116049_116049_403 hbefa_116049_116049_403" vType="DEFAULT_VEHTYPE" vaporized="">
        <emissions CO_abs="1021.305453" CO2_abs="106850.306096" HC_abs="29.184042" PMx_abs="10.295391" NOx_abs="211.230767" fuel_abs="42.599593"/>
    </tripinfo>
    <tripinfo id="119400_119400_405" depart="25211.00" departLane="154743410#1_0" departPos="5.10" departSpeed="0.00" departDelay="11.00" arrival="25261.00" arrivalLane="187965761#0_0" arrivalPos="97.49" arrivalSpeed="7.85" duration="50.00" routeLength="355.85" waitSteps="1" rerouteNo="1" devices="tripinfo_119400_119400_405 routing_119400_119400_405 hbefa_119400_119400_405" vType="DEFAULT_VEHTYPE" vaporized="">
        <emissions CO_abs="1070.208419" CO2_abs="90733.964660" HC_abs="28.499370" PMx_abs="9.858776" NOx_abs="183.714698" fuel_abs="36.174229"/>
    </tripinfo>
    <tripinfo id="103997_103997_397" depart="25200.00" departLane="145474195#0_0" departPos="5.10" departSpeed="0.00" departDelay="0.00" arrival="25265.00" arrivalLane="145575263_1" arrivalPos="260.32" arrivalSpeed="12.69" duration="65.00" routeLength="582.15" waitSteps="9" rerouteNo="1" devices="tripinfo_103997_103997_397 routing_103997_103997_397 hbefa_103997_103997_397" vType="DEFAULT_VEHTYPE" vaporized="">
        <emissions CO_abs="1156.797523" CO2_abs="112539.035125" HC_abs="32.221187" PMx_abs="11.446737" NOx_abs="224.346689" fuel_abs="44.867596"/>
    </tripinfo>
    <tripinfo id="174347_174347_427" depart="25256.00" departLane="23015778_0" departPos="5.10" departSpeed="0.00" departDelay="0.00" arrival="25266.00" arrivalLane="23015778_0" arrivalPos="93.11" arrivalSpeed="13.39" duration="10.00" routeLength="88.01" waitSteps="0" rerouteNo="1" devices="tripinfo_174347_174347_427 routing_174347_174347_427 hbefa_174347_174347_427" vType="DEFAULT_VEHTYPE" vaporized="">
        <emissions CO_abs="454.022988" CO2_abs="33007.745133" HC_abs="10.727509" PMx_abs="3.922854" NOx_abs="69.647962" fuel_abs="13.159678"/>
    </tripinfo>
    <tripinfo id="150894_150894_418" depart="25239.00" departLane="-175607927#0_0" departPos="5.10" departSpeed="0.00" departDelay="0.00" arrival="25267.00" arrivalLane="4400305_1" arrivalPos="163.40" arrivalSpeed="12.60" duration="28.00" routeLength="301.08" waitSteps="0" rerouteNo="1" devices="tripinfo_150894_150894_418 routing_150894_150894_418 hbefa_150894_150894_418" vType="DEFAULT_VEHTYPE" vaporized="">
        <emissions CO_abs="895.532474" CO2_abs="75776.661282" HC_abs="22.700642" PMx_abs="8.172457" NOx_abs="155.348716" fuel_abs="30.210993"/>
    </tripinfo>
    <tripinfo id="128669_128669_408" depart="25201.00" departLane="151057637#2_0" departPos="5.10" departSpeed="0.00" departDelay="0.00" arrival="25269.00" arrivalLane="23471158#9_0" arrivalPos="213.75" arrivalSpeed="27.75" duration="68.00" routeLength="904.86" waitSteps="0" rerouteNo="1" devices="tripinfo_128669_128669_408 routing_128669_128669_408 hbefa_128669_128669_408" vType="DEFAULT_VEHTYPE" vaporized="">
        <emissions CO_abs="5023.571653" CO2_abs="308614.535250" HC_abs="101.798123" PMx_abs="38.560176" NOx_abs="680.854992" fuel_abs="123.039986"/>
    </tripinfo>
    <tripinfo id="140838_140838_414" depart="25200.00" departLane="165511531#1_0" departPos="5.10" departSpeed="0.00" departDelay="0.00" arrival="25270.00" arrivalLane="23493260#7_0" arrivalPos="59.96" arrivalSpeed="13.47" duration="70.00" routeLength="689.80" waitSteps="0" rerouteNo="1" devices="tripinfo_140838_140838_414 routing_140838_140838_414 hbefa_140838_140838_414" vType="DEFAULT_VEHTYPE" vaporized="">
        <emissions CO_abs="1366.878905" CO2_abs="134086.156830" HC_abs="38.416836" PMx_abs="13.518643" NOx_abs="266.657231" fuel_abs="53.458095"/>
    </tripinfo>
    <tripinfo id="143430_143430_415" depart="25205.00" departLane="151057637#2_0" departPos="5.10" departSpeed="0.00" departDelay="0.00" arrival="25270.00" arrivalLane="23471158#9_0" arrivalPos="213.75" arrivalSpeed="27.74" duration="65.00" routeLength="904.86" waitSteps="0" rerouteNo="1" devices="tripinfo_143430_143430_415 routing_143430_143430_415 hbefa_143430_143430_415" vType="DEFAULT_VEHTYPE" vaporized="">
        <emissions CO_abs="4728.761348" CO2_abs="289637.520258" HC_abs="95.603801" PMx_abs="36.583390" NOx_abs="640.017293" fuel_abs="115.474138"/>
    </tripinfo>
    <tripinfo id="112729_112729_402" depart="25210.00" departLane="154743410#2_0" departPos="5.10" departSpeed="0.00" departDelay="10.00" arrival="25271.00" arrivalLane="9207798_1" arrivalPos="76.33" arrivalSpeed="18.16" duration="61.00" routeLength="167.61" waitSteps="26" rerouteNo="1" devices="tripinfo_112729_112729_402 routing_112729_112729_402 hbefa_112729_112729_402" vType="DEFAULT_VEHTYPE" vaporized="">
        <emissions CO_abs="1445.427633" CO2_abs="96751.825723" HC_abs="35.082308" PMx_abs="11.734696" NOx_abs="203.203645" fuel_abs="38.573454"/>
    </tripinfo>
    <tripinfo id="142640_142640_415" depart="25200.00" departLane="8096212#1_0" departPos="5.10" departSpeed="0.00" departDelay="0.00" arrival="25272.00" arrivalLane="23493260#7_0" arrivalPos="59.96" arrivalSpeed="13.27" duration="72.00" routeLength="713.59" waitSteps="0" rerouteNo="1" devices="tripinfo_142640_142640_415 routing_142640_142640_415 hbefa_142640_142640_415" vType="DEFAULT_VEHTYPE" vaporized="">
        <emissions CO_abs="1432.995359" CO2_abs="137635.325936" HC_abs="39.617024" PMx_abs="14.080920" NOx_abs="275.162734" fuel_abs="54.873095"/>
    </tripinfo>
    <tripinfo id="128373_128373_408" depart="25239.00" departLane="22873499#0_0" departPos="5.10" departSpeed="0.00" departDelay="0.00" arrival="25272.00" arrivalLane="-22873540#5_0" arrivalPos="187.63" arrivalSpeed="12.62" duration="33.00" routeLength="370.16" waitSteps="0" rerouteNo="1" devices="tripinfo_128373_128373_408 routing_128373_128373_408 hbefa_128373_128373_408" vType="DEFAULT_VEHTYPE" vaporized="">
        <emissions CO_abs="1026.688360" CO2_abs="81898.149572" HC_abs="24.931821" PMx_abs="9.276063" NOx_abs="170.523396" fuel_abs="32.651537"/>
    </tripinfo>
    <tripinfo id="147629_147629_416" depart="25235.00" departLane="31694310#0_0" departPos="5.10" departSpeed="0.00" departDelay="6.00" arrival="25273.00" arrivalLane="-150031186_0" arrivalPos="162.24" arrivalSpeed="13.17" duration="38.00" routeLength="438.54" waitSteps="0" rerouteNo="1" devices="tripinfo_147629_147629_416 routing_147629_147629_416 hbefa_147629_147629_416" vType="DEFAULT_VEHTYPE" vaporized="">
        <emissions CO_abs="2037.458509" CO2_abs="133314.553605" HC_abs="43.729317" PMx_abs="17.073166" NOx_abs="291.205689" fuel_abs="53.150467"/>
    </tripinfo>