<?xml version="1.0" encoding="UTF-8"?>

<!-- generated on Mon Feb 24 15:37:54 2014 by SUMO sumo Version 0.19.0
<?xml version="1.0" encoding="UTF-8"?>

<configuration xmlns:xsi="http://www.w3.org/2001/XMLSchema-instance" xsi:noNamespaceSchemaLocation="http://sumo-sim.org/xsd/sumoConfiguration.xsd">

    <input>
        <net-file value="data/map.net.xml"/>
        <route-files value="data/map.rou.xml"/>
    </input>

    <output>
        <tripinfo-output value="data/maptripinfoLocal.out.xml"/>
        <save-state.prefix value="data/state"/>
    </output>

    <time>
        <begin value="25200"/>
        <end value="26100"/>
    </time>

    <processing>
        <route-steps value="200"/>
        <scale value="0.8"/>
        <time-to-teleport value="300"/>
        <lanechange.allow-swap value="true"/>
    </processing>

    <report>
        <verbose value="true"/>
        <no-warnings value="false"/>
        <no-step-log value="true"/>
    </report>

    <emissions>
        <device.hbefa.probability value="1"/>
    </emissions>

    <traci_server>
        <remote-port value="8814"/>
    </traci_server>

</configuration>
-->

<tripinfos>
    <tripinfo id="160035_160035_421" depart="25200.00" departLane="8225127_0" departPos="5.10" departSpeed="0.00" departDelay="0.00" arrival="25206.00" arrivalLane="8225127_0" arrivalPos="38.87" arrivalSpeed="10.70" duration="6.00" routeLength="33.77" waitSteps="0" rerouteNo="0" devices="tripinfo_160035_160035_421 hbefa_160035_160035_421" vType="DEFAULT_VEHTYPE" vaporized="">
        <emissions CO_abs="280.589037" CO2_abs="20317.856613" HC_abs="6.882323" PMx_abs="2.363769" NOx_abs="42.361001" fuel_abs="8.100414"/>
    </tripinfo>
    <tripinfo id="146065_146065_416" depart="25200.00" departLane="185767959#0_0" departPos="5.10" departSpeed="0.00" departDelay="0.00" arrival="25211.00" arrivalLane="9207798_1" arrivalPos="76.33" arrivalSpeed="19.30" duration="11.00" routeLength="90.29" waitSteps="0" rerouteNo="1" devices="tripinfo_146065_146065_416 hbefa_146065_146065_416" vType="DEFAULT_VEHTYPE" vaporized="">
        <emissions CO_abs="908.570380" CO2_abs="58253.649292" HC_abs="19.598529" PMx_abs="7.463520" NOx_abs="127.202842" fuel_abs="23.224835"/>
    </tripinfo>
    <tripinfo id="135816_135816_411" depart="25200.00" departLane="23471158#6_0" departPos="5.10" departSpeed="0.00" departDelay="0.00" arrival="25218.00" arrivalLane="23471158#9_0" arrivalPos="213.75" arrivalSpeed="27.64" duration="18.00" routeLength="308.43" waitSteps="0" rerouteNo="0" devices="tripinfo_135816_135816_411 hbefa_135816_135816_411" vType="DEFAULT_VEHTYPE" vaporized="">
        <emissions CO_abs="2107.881362" CO2_abs="123547.007126" HC_abs="41.457775" PMx_abs="15.648043" NOx_abs="275.463918" fuel_abs="49.256348"/>
    </tripinfo>
    <tripinfo id="137129_137129_412" depart="25207.00" departLane="154755085#0_0" departPos="5.10" departSpeed="0.00" departDelay="0.00" arrival="25223.00" arrivalLane="154755085#1_0" arrivalPos="144.95" arrivalSpeed="13.32" duration="16.00" routeLength="164.24" waitSteps="0" rerouteNo="0" devices="tripinfo_137129_137129_412 hbefa_137129_137129_412" vType="DEFAULT_VEHTYPE" vaporized="">
        <emissions CO_abs="491.787847" CO2_abs="43651.548303" HC_abs="13.019873" PMx_abs="4.456806" NOx_abs="88.099586" fuel_abs="17.403203"/>
    </tripinfo>
    <tripinfo id="106717_106717_399" depart="25200.00" departLane="-154755100#1_0" departPos="5.10" departSpeed="0.00" departDelay="0.00" arrival="25224.00" arrivalLane="-154755100#0_0" arrivalPos="171.42" arrivalSpeed="12.70" duration="24.00" routeLength="263.89" waitSteps="0" rerouteNo="1" devices="tripinfo_106717_106717_399 hbefa_106717_106717_399" vType="DEFAULT_VEHTYPE" vaporized="">
        <emissions CO_abs="512.167157" CO2_abs="48447.966853" HC_abs="14.133651" PMx_abs="4.744278" NOx_abs="96.508931" fuel_abs="19.315463"/>
    </tripinfo>
    <tripinfo id="106746_106746_399" depart="25200.00" departLane="180723491_0" departPos="5.10" departSpeed="0.00" departDelay="0.00" arrival="25227.00" arrivalLane="154743410#0_0" arrivalPos="108.34" arrivalSpeed="10.99" duration="27.00" routeLength="223.23" waitSteps="0" rerouteNo="0" devices="tripinfo_106746_106746_399 hbefa_106746_106746_399" vType="DEFAULT_VEHTYPE" vaporized="">
        <emissions CO_abs="1279.308286" CO2_abs="85713.406688" HC_abs="28.587705" PMx_abs="10.865876" NOx_abs="185.129429" fuel_abs="34.172609"/>
    </tripinfo>
    <tripinfo id="168852_168852_425" depart="25220.00" departLane="160971552_0" departPos="5.10" departSpeed="0.00" departDelay="3.00" arrival="25230.00" arrivalLane="160971552_0" arrivalPos="96.86" arrivalSpeed="19.06" duration="10.00" routeLength="91.76" waitSteps="0" rerouteNo="0" devices="tripinfo_168852_168852_425 hbefa_168852_168852_425" vType="DEFAULT_VEHTYPE" vaporized="">
        <emissions CO_abs="878.596961" CO2_abs="56951.101389" HC_abs="18.856776" PMx_abs="7.230012" NOx_abs="124.327711" fuel_abs="22.705531"/>
    </tripinfo>
    <tripinfo id="71540_71540_383" depart="25200.00" departLane="150031262#0_0" departPos="5.10" departSpeed="0.00" departDelay="0.00" arrival="25231.00" arrivalLane="145575263_1" arrivalPos="260.32" arrivalSpeed="13.75" duration="31.00" routeLength="322.07" waitSteps="0" rerouteNo="1" devices="tripinfo_71540_71540_383 hbefa_71540_71540_383" vType="DEFAULT_VEHTYPE" vaporized="">
        <emissions CO_abs="943.944836" CO2_abs="76513.568098" HC_abs="23.387691" PMx_abs="8.524941" NOx_abs="158.252705" fuel_abs="30.504785"/>
    </tripinfo>
    <tripinfo id="95486_95486_394" depart="25200.00" departLane="23799989#0_0" departPos="5.10" departSpeed="0.00" departDelay="0.00" arrival="25233.00" arrivalLane="4400200_0" arrivalPos="166.23" arrivalSpeed="13.43" duration="33.00" routeLength="289.53" waitSteps="0" rerouteNo="1" devices="tripinfo_95486_95486_394 hbefa_95486_95486_394" vType="DEFAULT_VEHTYPE" vaporized="">
        <emissions CO_abs="675.662243" CO2_abs="64137.505751" HC_abs="18.931888" PMx_abs="6.494842" NOx_abs="127.679883" fuel_abs="25.570638"/>
    </tripinfo>
    <tripinfo id="100948_100948_396" depart="25200.00" departLane="154743410#2_0" departPos="5.10" departSpeed="0.00" departDelay="0.00" arrival="25234.00" arrivalLane="9207798_1" arrivalPos="76.33" arrivalSpeed="17.88" duration="34.00" routeLength="167.61" waitSteps="10" rerouteNo="1" devices="tripinfo_100948_100948_396 hbefa_100948_100948_396" vType="DEFAULT_VEHTYPE" vaporized="">
        <emissions CO_abs="1233.971407" CO2_abs="85051.527625" HC_abs="29.157413" PMx_abs="10.141526" NOx_abs="179.638287" fuel_abs="33.908732"/>
    </tripinfo>
    <tripinfo id="116829_116829_404" depart="25200.00" departLane="4380937#2_0" departPos="5.10" departSpeed="0.00" departDelay="0.00" arrival="25234.00" arrivalLane="145575263_1" arrivalPos="260.32" arrivalSpeed="13.71" duration="34.00" routeLength="357.91" waitSteps="0" rerouteNo="1" devices="tripinfo_116829_116829_404 hbefa_116829_116829_404" vType="DEFAULT_VEHTYPE" vaporized="">
        <emissions CO_abs="930.348909" CO2_abs="86837.314549" HC_abs="25.060912" PMx_abs="8.989517" NOx_abs="174.838504" fuel_abs="34.620710"/>
    </tripinfo>
    <tripinfo id="136116_136116_411" depart="25219.00" departLane="154755085#0_0" departPos="5.10" departSpeed="0.00" departDelay="0.00" arrival="25235.00" arrivalLane="154755085#1_0" arrivalPos="144.95" arrivalSpeed="13.13" duration="16.00" routeLength="164.24" waitSteps="0" rerouteNo="0" devices="tripinfo_136116_136116_411 hbefa_136116_136116_411" vType="DEFAULT_VEHTYPE" vaporized="">
        <emissions CO_abs="419.736159" CO2_abs="44181.070463" HC_abs="12.343755" PMx_abs="4.366819" NOx_abs="86.970658" fuel_abs="17.614318"/>
    </tripinfo>
    <tripinfo id="145303_145303_416" depart="25208.00" departLane="-200671461_0" departPos="5.10" departSpeed="0.00" departDelay="0.00" arrival="25238.00" arrivalLane="-50061433_0" arrivalPos="60.25" arrivalSpeed="13.74" duration="30.00" routeLength="212.51" waitSteps="0" rerouteNo="0" devices="tripinfo_145303_145303_416 hbefa_145303_145303_416" vType="DEFAULT_VEHTYPE" vaporized="">
        <emissions CO_abs="1177.471369" CO2_abs="86108.109095" HC_abs="27.856905" PMx_abs="10.253199" NOx_abs="181.557990" fuel_abs="34.329973"/>
    </tripinfo>
    <tripinfo id="117072_117072_404" depart="25215.00" departLane="185767958#1_0" departPos="5.10" departSpeed="0.00" departDelay="15.00" arrival="25241.00" arrivalLane="36590979#0-AddedOffRampEdge_0" arrivalPos="103.44" arrivalSpeed="21.74" duration="26.00" routeLength="430.18" waitSteps="0" rerouteNo="0" devices="tripinfo_117072_117072_404 hbefa_117072_117072_404" vType="DEFAULT_VEHTYPE" vaporized="">
        <emissions CO_abs="1944.936991" CO2_abs="125866.303999" HC_abs="39.994762" PMx_abs="15.521659" NOx_abs="275.292530" fuel_abs="50.181021"/>
    </tripinfo>
    <tripinfo id="149330_149330_417" depart="25200.00" departLane="154755085#0_0" departPos="5.10" departSpeed="0.00" departDelay="0.00" arrival="25241.00" arrivalLane="4400311#0_0" arrivalPos="280.07" arrivalSpeed="7.62" duration="41.00" routeLength="299.36" waitSteps="0" rerouteNo="0" devices="tripinfo_149330_149330_417 hbefa_149330_149330_417" vType="DEFAULT_VEHTYPE" vaporized="">
        <emissions CO_abs="310.602118" CO2_abs="45766.136656" HC_abs="12.673947" PMx_abs="3.680381" NOx_abs="83.394093" fuel_abs="18.246251"/>
    </tripinfo>
    <tripinfo id="161230_161230_421" depart="25228.00" departLane="28557537#1_0" departPos="5.10" departSpeed="0.00" departDelay="0.00" arrival="25241.00" arrivalLane="28557537#1_0" arrivalPos="170.84" arrivalSpeed="24.68" duration="13.00" routeLength="165.74" waitSteps="0" rerouteNo="0" devices="tripinfo_161230_161230_421 hbefa_161230_161230_421" vType="DEFAULT_VEHTYPE" vaporized="">
        <emissions CO_abs="1549.428752" CO2_abs="92417.853130" HC_abs="31.304811" PMx_abs="12.260076" NOx_abs="206.348152" fuel_abs="36.845592"/>
    </tripinfo>
    <tripinfo id="105046_105046_398" depart="25200.00" departLane="36454807#3-AddedOnRampEdge_0" departPos="5.10" departSpeed="0.00" departDelay="0.00" arrival="25241.00" arrivalLane="23471158#9_0" arrivalPos="213.75" arrivalSpeed="27.49" duration="41.00" routeLength="380.36" waitSteps="0" rerouteNo="2" devices="tripinfo_105046_105046_398 hbefa_105046_105046_398" vType="DEFAULT_VEHTYPE" vaporized="">
        <emissions CO_abs="2794.010756" CO2_abs="183670.865035" HC_abs="59.407416" PMx_abs="22.245159" NOx_abs="398.451940" fuel_abs="73.226795"/>
    </tripinfo>
    <tripinfo id="106412_106412_399" depart="25200.00" departLane="4380937#0_0" departPos="5.10" departSpeed="0.00" departDelay="0.00" arrival="25242.00" arrivalLane="145575263_1" arrivalPos="260.32" arrivalSpeed="12.95" duration="42.00" routeLength="357.91" waitSteps="0" rerouteNo="2" devices="tripinfo_106412_106412_399 hbefa_106412_106412_399" vType="DEFAULT_VEHTYPE" vaporized="">
        <emissions CO_abs="974.995219" CO2_abs="89374.599974" HC_abs="25.895251" PMx_abs="9.219712" NOx_abs="180.378588" fuel_abs="35.632287"/>
    </tripinfo>
    <tripinfo id="87270_87270_391" depart="25203.00" departLane="36454807#3-AddedOnRampEdge_0" departPos="5.10" departSpeed="0.00" departDelay="3.00" arrival="25243.00" arrivalLane="23471158#9_0" arrivalPos="213.75" arrivalSpeed="27.59" duration="40.00" routeLength="393.11" waitSteps="1" rerouteNo="2" devices="tripinfo_87270_87270_391 hbefa_87270_87270_391" vType="DEFAULT_VEHTYPE" vaporized="">
        <emissions CO_abs="3051.253288" CO2_abs="185403.885603" HC_abs="61.834285" PMx_abs="23.567466" NOx_abs="410.113998" fuel_abs="73.917741"/>
    </tripinfo>
    <tripinfo id="130658_130658_409" depart="25218.00" departLane="23799644_0" departPos="5.10" departSpeed="0.00" departDelay="0.00" arrival="25243.00" arrivalLane="4400449#0_0" arrivalPos="32.06" arrivalSpeed="12.16" duration="25.00" routeLength="218.58" waitSteps="0" rerouteNo="0" devices="tripinfo_130658_130658_409 hbefa_130658_130658_409" vType="DEFAULT_VEHTYPE" vaporized="">
        <emissions CO_abs="782.846012" CO2_abs="60950.729200" HC_abs="19.327505" PMx_abs="6.944373" NOx_abs="126.522807" fuel_abs="24.300115"/>
    </tripinfo>
    <tripinfo id="147897_147897_416" depart="25223.00" departLane="23015529#0_0" departPos="5.10" departSpeed="0.00" departDelay="0.00" arrival="25244.00" arrivalLane="37866521#1_0" arrivalPos="52.00" arrivalSpeed="13.34" duration="21.00" routeLength="231.77" waitSteps="0" rerouteNo="0" devices="tripinfo_147897_147897_416 hbefa_147897_147897_416" vType="DEFAULT_VEHTYPE" vaporized="">
        <emissions CO_abs="508.090931" CO2_abs="48357.362946" HC_abs="13.948279" PMx_abs="4.924015" NOx_abs="96.792505" fuel_abs="19.279342"/>
    </tripinfo>
    <tripinfo id="148292_148292_417" depart="25200.00" departLane="69366484#0_0" departPos="5.10" departSpeed="0.00" departDelay="0.00" arrival="25245.00" arrivalLane="23493260#7_0" arrivalPos="59.96" arrivalSpeed="13.29" duration="45.00" routeLength="451.35" waitSteps="0" rerouteNo="0" devices="tripinfo_148292_148292_417 hbefa_148292_148292_417" vType="DEFAULT_VEHTYPE" vaporized="">
        <emissions CO_abs="950.221102" CO2_abs="91138.698952" HC_abs="26.361261" PMx_abs="9.266288" NOx_abs="181.883247" fuel_abs="36.335602"/>
    </tripinfo>
    <tripinfo id="114306_114306_402" depart="25200.00" departLane="36564599_0" departPos="5.10" departSpeed="0.00" departDelay="0.00" arrival="25246.00" arrivalLane="36564599_0" arrivalPos="101.75" arrivalSpeed="2.21" duration="46.00" routeLength="96.65" waitSteps="0" rerouteNo="0" devices="tripinfo_114306_114306_402 hbefa_114306_114306_402" vType="DEFAULT_VEHTYPE" vaporized="">
        <emissions CO_abs="171.948618" CO2_abs="24674.472083" HC_abs="9.410767" PMx_abs="1.399661" NOx_abs="39.696455" fuel_abs="9.837327"/>
    </tripinfo>
    <tripinfo id="147145_147145_416" depart="25200.00" departLane="154755073#4_0" departPos="5.10" departSpeed="0.00" departDelay="0.00" arrival="25246.00" arrivalLane="2837877_0" arrivalPos="210.13" arrivalSpeed="8.23" duration="46.00" routeLength="336.64" waitSteps="0" rerouteNo="0" devices="tripinfo_147145_147145_416 hbefa_147145_147145_416" vType="DEFAULT_VEHTYPE" vaporized="">
        <emissions CO_abs="415.164728" CO2_abs="56676.264325" HC_abs="15.937314" PMx_abs="4.656350" NOx_abs="104.355981" fuel_abs="22.595950"/>
    </tripinfo>
    <tripinfo id="122923_122923_406" depart="25200.00" departLane="36454807#1_0" departPos="5.10" departSpeed="0.00" departDelay="0.00" arrival="25246.00" arrivalLane="23471158#9_0" arrivalPos="213.75" arrivalSpeed="27.18" duration="46.00" routeLength="393.11" waitSteps="0" rerouteNo="2" devices="tripinfo_122923_122923_406 hbefa_122923_122923_406" vType="DEFAULT_VEHTYPE" vaporized="">
        <emissions CO_abs="3084.744628" CO2_abs="194312.024470" HC_abs="64.244999" PMx_abs="23.985516" NOx_abs="424.820394" fuel_abs="77.469277"/>
    </tripinfo>
    <tripinfo id="103997_103997_397" depart="25200.00" departLane="145474195#0_0" departPos="5.10" departSpeed="0.00" departDelay="0.00" arrival="25247.00" arrivalLane="145575263_1" arrivalPos="260.32" arrivalSpeed="12.64" duration="47.00" routeLength="361.64" waitSteps="0" rerouteNo="1" devices="tripinfo_103997_103997_397 hbefa_103997_103997_397" vType="DEFAULT_VEHTYPE" vaporized="">
        <emissions CO_abs="732.344094" CO2_abs="90573.863865" HC_abs="23.310499" PMx_abs="8.167267" NOx_abs="174.708340" fuel_abs="36.110429"/>
    </tripinfo>
    <tripinfo id="102085_102085_396" depart="25202.00" departLane="154743410#2_0" departPos="5.10" departSpeed="0.00" departDelay="2.00" arrival="25249.00" arrivalLane="9207798_1" arrivalPos="76.33" arrivalSpeed="18.66" duration="47.00" routeLength="167.61" waitSteps="19" rerouteNo="1" devices="tripinfo_102085_102085_396 hbefa_102085_102085_396" vType="DEFAULT_VEHTYPE" vaporized="">
        <emissions CO_abs="1555.252033" CO2_abs="98276.711437" HC_abs="35.972253" PMx_abs="12.448840" NOx_abs="210.525102" fuel_abs="39.181406"/>
    </tripinfo>
    <tripinfo id="113896_113896_402" depart="25203.00" departLane="4380937#0_0" departPos="5.10" departSpeed="0.00" departDelay="3.00" arrival="25251.00" arrivalLane="145575263_1" arrivalPos="260.32" arrivalSpeed="13.14" duration="48.00" routeLength="357.91" waitSteps="0" rerouteNo="1" devices="tripinfo_113896_113896_402 hbefa_113896_113896_402" vType="DEFAULT_VEHTYPE" vaporized="">
        <emissions CO_abs="1029.349764" CO2_abs="95509.569989" HC_abs="27.798495" PMx_abs="9.792399" NOx_abs="191.933177" fuel_abs="38.078205"/>
    </tripinfo>
    <tripinfo id="145302_145302_416" depart="25215.00" departLane="150031221_0" departPos="5.10" departSpeed="0.00" departDelay="0.00" arrival="25252.00" arrivalLane="150031221_0" arrivalPos="279.03" arrivalSpeed="7.91" duration="37.00" routeLength="273.93" waitSteps="0" rerouteNo="0" devices="tripinfo_145302_145302_416 hbefa_145302_145302_416" vType="DEFAULT_VEHTYPE" vaporized="">
        <emissions CO_abs="243.291515" CO2_abs="41154.571078" HC_abs="11.096028" PMx_abs="3.188207" NOx_abs="73.716515" fuel_abs="16.407692"/>
    </tripinfo>
    <tripinfo id="108143_108143_400" depart="25221.00" departLane="23799644_0" departPos="5.10" departSpeed="0.00" departDelay="0.00" arrival="25252.00" arrivalLane="64487982#4_0" arrivalPos="68.97" arrivalSpeed="7.65" duration="31.00" routeLength="255.49" waitSteps="0" rerouteNo="0" devices="tripinfo_108143_108143_400 hbefa_108143_108143_400" vType="DEFAULT_VEHTYPE" vaporized="">
        <emissions CO_abs="621.374932" CO2_abs="54660.114751" HC_abs="16.770275" PMx_abs="5.764794" NOx_abs="109.978791" fuel_abs="21.792143"/>
    </tripinfo>
    <tripinfo id="136568_136568_411" depart="25232.00" departLane="8225144#1_0" departPos="5.10" departSpeed="0.00" departDelay="0.00" arrival="25252.00" arrivalLane="23015778_0" arrivalPos="93.11" arrivalSpeed="13.54" duration="20.00" routeLength="223.78" waitSteps="0" rerouteNo="0" devices="tripinfo_136568_136568_411 hbefa_136568_136568_411" vType="DEFAULT_VEHTYPE" vaporized="">
        <emissions CO_abs="553.025726" CO2_abs="48544.307832" HC_abs="14.340700" PMx_abs="5.230601" NOx_abs="98.940308" fuel_abs="19.353873"/>
    </tripinfo>
    <tripinfo id="145277_145277_416" depart="25203.00" departLane="145474195#0_0" departPos="5.10" departSpeed="0.00" departDelay="3.00" arrival="25253.00" arrivalLane="145575263_1" arrivalPos="260.32" arrivalSpeed="13.61" duration="50.00" routeLength="357.91" waitSteps="0" rerouteNo="1" devices="tripinfo_145277_145277_416 hbefa_145277_145277_416" vType="DEFAULT_VEHTYPE" vaporized="">
        <emissions CO_abs="1046.504612" CO2_abs="105708.054058" HC_abs="29.392860" PMx_abs="10.477787" NOx_abs="210.133134" fuel_abs="42.144192"/>
    </tripinfo>
    <tripinfo id="106411_106411_399" depart="25204.00" departLane="154743410#2_0" departPos="5.10" departSpeed="0.00" departDelay="4.00" arrival="25257.00" arrivalLane="9207798_1" arrivalPos="76.33" arrivalSpeed="16.08" duration="53.00" routeLength="167.61" waitSteps="19" rerouteNo="1" devices="tripinfo_106411_106411_399 hbefa_106411_106411_399" vType="DEFAULT_VEHTYPE" vaporized="">
        <emissions CO_abs="1184.812044" CO2_abs="82678.312578" HC_abs="29.726070" PMx_abs="9.636801" NOx_abs="171.284259" fuel_abs="32.962564"/>
    </tripinfo>
    <tripinfo id="155268_155268_420" depart="25200.00" departLane="150039002#2_0" departPos="5.10" departSpeed="0.00" departDelay="0.00" arrival="25257.00" arrivalLane="36590979#4_0" arrivalPos="41.97" arrivalSpeed="21.76" duration="57.00" routeLength="538.03" waitSteps="12" rerouteNo="0" devices="tripinfo_155268_155268_420 hbefa_155268_155268_420" vType="DEFAULT_VEHTYPE" vaporized="">
        <emissions CO_abs="1867.599822" CO2_abs="147923.332684" HC_abs="45.871240" PMx_abs="15.664677" NOx_abs="304.022371" fuel_abs="58.974804"/>
    </tripinfo>
    <tripinfo id="141739_141739_415" depart="25200.00" departLane="23471151#1_0" departPos="5.10" departSpeed="0.00" departDelay="0.00" arrival="25259.00" arrivalLane="8225102_0" arrivalPos="87.82" arrivalSpeed="8.12" duration="59.00" routeLength="732.25" waitSteps="0" rerouteNo="0" devices="tripinfo_141739_141739_415 hbefa_141739_141739_415" vType="DEFAULT_VEHTYPE" vaporized="">
        <emissions CO_abs="2584.453262" CO2_abs="179780.913606" HC_abs="56.671874" PMx_abs="21.134490" NOx_abs="384.794498" fuel_abs="71.675937"/>
    </tripinfo>
    <tripinfo id="149028_149028_417" depart="25233.00" departLane="-200671461_0" departPos="5.10" departSpeed="0.00" departDelay="0.00" arrival="25260.00" arrivalLane="-22873531#1_0" arrivalPos="92.66" arrivalSpeed="13.17" duration="27.00" routeLength="244.92" waitSteps="0" rerouteNo="0" devices="tripinfo_149028_149028_417 hbefa_149028_149028_417" vType="DEFAULT_VEHTYPE" vaporized="">
        <emissions CO_abs="1201.193405" CO2_abs="80884.349316" HC_abs="26.840654" PMx_abs="10.359431" NOx_abs="174.877367" fuel_abs="32.247339"/>
    </tripinfo>
    <tripinfo id="109590_109590_401" depart="25202.00" departLane="150031205#1_0" departPos="5.10" departSpeed="0.00" departDelay="2.00" arrival="25261.00" arrivalLane="145575263_1" arrivalPos="260.32" arrivalSpeed="13.46" duration="59.00" routeLength="357.91" waitSteps="0" rerouteNo="1" devices="tripinfo_109590_109590_401 hbefa_109590_109590_401" vType="DEFAULT_VEHTYPE" vaporized="">
        <emissions CO_abs="1382.445488" CO2_abs="130725.758107" HC_abs="37.039439" PMx_abs="13.696194" NOx_abs="263.781005" fuel_abs="52.118365"/>
    </tripinfo>
    <tripinfo id="119400_119400_405" depart="25212.00" departLane="154743410#1_0" departPos="5.10" departSpeed="0.00" departDelay="12.00" arrival="25263.00" arrivalLane="187965761#0_0" arrivalPos="97.49" arrivalSpeed="8.03" duration="51.00" routeLength="355.85" waitSteps="0" rerouteNo="1" devices="tripinfo_119400_119400_405 hbefa_119400_119400_405" vType="DEFAULT_VEHTYPE" vaporized="">
        <emissions CO_abs="919.991405" CO2_abs="79863.907921" HC_abs="24.814260" PMx_abs="8.634676" NOx_abs="161.043836" fuel_abs="31.840506"/>
    </tripinfo>
    <tripinfo id="128669_128669_408" depart="25201.00" departLane="151057637#2_0" departPos="5.10" departSpeed="0.00" departDelay="0.00" arrival="25264.00" arrivalLane="23471158#9_0" arrivalPos="213.75" arrivalSpeed="27.27" duration="63.00" routeLength="380.36" waitSteps="0" rerouteNo="3" devices="tripinfo_128669_128669_408 hbefa_128669_128669_408" vType="DEFAULT_VEHTYPE" vaporized="">
        <emissions CO_abs="4865.282657" CO2_abs="298331.537091" HC_abs="98.131330" PMx_abs="37.648190" NOx_abs="659.482351" fuel_abs="118.940313"/>
    </tripinfo>
    <tripinfo id="116728_116728_404" depart="25208.00" departLane="150031205#1_0" departPos="5.10" departSpeed="0.00" departDelay="8.00" arrival="25266.00" arrivalLane="145575263_1" arrivalPos="260.32" arrivalSpeed="12.85" duration="58.00" routeLength="361.64" waitSteps="0" rerouteNo="1" devices="tripinfo_116728_116728_404 hbefa_116728_116728_404" vType="DEFAULT_VEHTYPE" vaporized="">
        <emissions CO_abs="1101.151955" CO2_abs="113455.583732" HC_abs="31.291180" PMx_abs="11.063573" NOx_abs="224.756888" fuel_abs="45.233013"/>
    </tripinfo>
    <tripinfo id="115398_115398_403" depart="25212.00" departLane="185767958#1_0" departPos="5.10" departSpeed="0.00" departDelay="12.00" arrival="25266.00" arrivalLane="23471158#9_0" arrivalPos="213.75" arrivalSpeed="27.25" duration="54.00" routeLength="393.11" waitSteps="0" rerouteNo="2" devices="tripinfo_115398_115398_403 hbefa_115398_115398_403" vType="DEFAULT_VEHTYPE" vaporized="">
        <emissions CO_abs="4589.720751" CO2_abs="276505.471602" HC_abs="91.547400" PMx_abs="34.349196" NOx_abs="611.684989" fuel_abs="110.238613"/>
    </tripinfo>
    <tripinfo id="104464_104464_397" depart="25200.00" departLane="154743410#1_0" departPos="5.10" departSpeed="0.00" departDelay="0.00" arrival="25267.00" arrivalLane="9207798_1" arrivalPos="76.33" arrivalSpeed="17.44" duration="67.00" routeLength="90.29" waitSteps="0" rerouteNo="2" devices="tripinfo_104464_104464_397 hbefa_104464_104464_397" vType="DEFAULT_VEHTYPE" vaporized="">
        <emissions CO_abs="2338.113190" CO2_abs="174867.840107" HC_abs="55.219653" PMx_abs="20.504092" NOx_abs="368.152932" fuel_abs="69.717117"/>
    </tripinfo>
    <tripinfo id="174347_174347_427" depart="25256.00" departLane="23015778_0" departPos="5.10" departSpeed="0.00" departDelay="0.00" arrival="25267.00" arrivalLane="23015778_0" arrivalPos="93.11" arrivalSpeed="13.36" duration="11.00" routeLength="88.01" waitSteps="0" rerouteNo="0" devices="tripinfo_174347_174347_427 hbefa_174347_174347_427" vType="DEFAULT_VEHTYPE" vaporized="">
        <emissions CO_abs="433.326396" CO2_abs="33448.561061" HC_abs="10.725700" PMx_abs="3.737452" NOx_abs="69.247612" fuel_abs="13.335425"/>
    </tripinfo>
    <tripinfo id="150894_150894_418" depart="25239.00" departLane="-175607927#0_0" departPos="5.10" departSpeed="0.00" departDelay="0.00" arrival="25269.00" arrivalLane="4400305_1" arrivalPos="163.40" arrivalSpeed="13.71" duration="30.00" routeLength="301.08" waitSteps="0" rerouteNo="1" devices="tripinfo_150894_150894_418 hbefa_150894_150894_418" vType="DEFAULT_VEHTYPE" vaporized="">
        <emissions CO_abs="924.145570" CO2_abs="75305.119767" HC_abs="23.076960" PMx_abs="8.276128" NOx_abs="155.247883" fuel_abs="30.022995"/>
    </tripinfo>
    <tripinfo id="116049_116049_403" depart="25205.00" departLane="150031205#1_0" departPos="5.10" departSpeed="0.00" departDelay="5.00" arrival="25269.00" arrivalLane="145575263_1" arrivalPos="260.32" arrivalSpeed="12.72" duration="64.00" routeLength="357.91" waitSteps="0" rerouteNo="1" devices="tripinfo_116049_116049_403 hbefa_116049_116049_403" vType="DEFAULT_VEHTYPE" vaporized="">
        <emissions CO_abs="1518.983254" CO2_abs="143742.749495" HC_abs="41.170979" PMx_abs="14.850589" NOx_abs="288.981476" fuel_abs="57.308039"/>
    </tripinfo>
    <tripinfo id="140838_140838_414" depart="25200.00" departLane="165511531#1_0" departPos="5.10" departSpeed="0.00" departDelay="0.00" arrival="25272.00" arrivalLane="23493260#7_0" arrivalPos="59.96" arrivalSpeed="13.64" duration="72.00" routeLength="689.80" waitSteps="0" rerouteNo="0" devices="tripinfo_140838_140838_414 hbefa_140838_140838_414" vType="DEFAULT_VEHTYPE" vaporized="">
        <emissions CO_abs="1582.550349" CO2_abs="139786.699938" HC_abs="41.734499" PMx_abs="14.845710" NOx_abs="283.312922" fuel_abs="55.730809"/>
    </tripinfo>
    <tripinfo id="143430_143430_415" depart="25205.00" departLane="151057637#2_0" departPos="5.10" departSpeed="0.00" departDelay="0.00" arrival="25272.00" arrivalLane="23471158#9_0" arrivalPos="213.75" arrivalSpeed="27.51" duration="67.00" routeLength="380.36" waitSteps="0" rerouteNo="3" devices="tripinfo_143430_143430_415 hbefa_143430_143430_415" vType="DEFAULT_VEHTYPE" vaporized="">
        <emissions CO_abs="4727.423248" CO2_abs="291112.786966" HC_abs="96.166815" PMx_abs="36.039211" NOx_abs="640.659640" fuel_abs="116.062305"/>
    </tripinfo>
    <tripinfo id="128373_128373_408" depart="25239.00" departLane="22873499#0_0" departPos="5.10" departSpeed="0.00" departDelay="0.00" arrival="25272.00" arrivalLane="-22873540#5_0" arrivalPos="187.63" arrivalSpeed="13.57" duration="33.00" routeLength="370.16" waitSteps="0" rerouteNo="0" devices="tripinfo_128373_128373_408 hbefa_128373_128373_408" vType="DEFAULT_VEHTYPE" vaporized="">
        <emissions CO_abs="1042.693407" CO2_abs="86479.997079" HC_abs="25.810349" PMx_abs="9.774862" NOx_abs="179.056375" fuel_abs="34.478251"/>
    </tripinfo>
    <tripinfo id="150644_150644_418" depart="25232.00" departLane="-69366482#2_0" departPos="5.10" departSpeed="0.00" departDelay="0.00" arrival="25272.00" arrivalLane="37866521#1_0" arrivalPos="52.00" arrivalSpeed="13.60" duration="40.00" routeLength="401.29" waitSteps="0" rerouteNo="0" devices="tripinfo_150644_150644_418 hbefa_150644_150644_418" vType="DEFAULT_VEHTYPE" vaporized="">
        <emissions CO_abs="726.755640" CO2_abs="79194.801176" HC_abs="22.103082" PMx_abs="7.476789" NOx_abs="154.218531" fuel_abs="31.573757"/>
    </tripinfo>
    <tripinfo id="147629_147629_416" depart="25234.00" departLane="31694310#0_0" departPos="5.10" departSpeed="0.00" departDelay="5.00" arrival="25274.00" arrivalLane="-150031186_0" arrivalPos="162.24" arrivalSpeed="13.47" duration="40.00" routeLength="438.54" waitSteps="0" rerouteNo="0" devices="tripinfo_147629_147629_416 hbefa_147629_147629_416" vType="DEFAULT_VEHTYPE" vaporized="">
        <emissions CO_abs="1932.788029" CO2_abs="131337.537302" HC_abs="42.489935" PMx_abs="16.499853" NOx_abs="284.072773" fuel_abs="52.362262"/>
    </tripinfo>
    <tripinfo id="104593_104593_397" depart="25203.00" departLane="154743410#1_0" departPos="5.10" departSpeed="0.00" departDelay="3.00" arrival="25275.00" arrivalLane="9207798_1" arrivalPos="76.33" arrivalSpeed="17.34" duration="72.00" routeLength="90.29" waitSteps="0" rerouteNo="2" devices="tripinfo_104593_104593_397 hbefa_104593_104593_397" vType="DEFAULT_VEHTYPE" vaporized="">
        <emissions CO_abs="2179.798027" CO2_abs="173274.041826" HC_abs="53.779539" PMx_abs="19.618228" NOx_abs="359.314989" fuel_abs="69.081695"/>
    </tripinfo>
    <tripinfo id="142640_142640_415" depart="25200.00" departLane="8096212#1_0" departPos="5.10" departSpeed="0.00" departDelay="0.00" arrival="25276.00" arrivalLane="23493260#7_0" arrivalPos="59.96" arrivalSpeed="13.26" duration="76.00" routeLength="713.59" waitSteps="0" rerouteNo="0" devices="tripinfo_142640_142640_415 hbefa_142640_142640_415" vType="DEFAULT_VEHTYPE" vaporized="">
        <emissions CO_abs="1569.739720" CO2_abs="142935.752115" HC_abs="42.414778" PMx_abs="14.959085" NOx_abs="287.539660" fuel_abs="56.986287"/>
    </tripinfo>