<?xml version="1.0" encoding="UTF-8"?>

<!-- generated on Wed Mar  5 15:58:49 2014 by SUMO sumo Version dev-SVN-r15641
<?xml version="1.0" encoding="UTF-8"?>

<configuration xmlns:xsi="http://www.w3.org/2001/XMLSchema-instance" xsi:noNamespaceSchemaLocation="http://sumo-sim.org/xsd/sumoConfiguration.xsd">

    <input>
        <net-file value="data/map.net.xml"/>
        <route-files value="data/map.rou.xml"/>
    </input>

    <output>
        <tripinfo-output value="data/maptripinfoLocal.out.xml"/>
        <save-state.prefix value="data/state"/>
    </output>

    <time>
        <begin value="27000"/>
        <end value="27900"/>
    </time>

    <processing>
        <route-steps value="200"/>
        <scale value="0.8"/>
        <time-to-teleport value="300"/>
        <lanechange.allow-swap value="true"/>
    </processing>

    <report>
        <verbose value="true"/>
        <no-warnings value="true"/>
        <no-step-log value="true"/>
    </report>

    <emissions>
        <device.hbefa.probability value="1"/>
    </emissions>

    <traci_server>
        <remote-port value="8814"/>
    </traci_server>

</configuration>
-->

<tripinfos>
    <tripinfo id="136022_136022_411" depart="27003.00" departLane="23800191#2_0" departPos="5.10" departSpeed="0.00" departDelay="3.00" arrival="27009.00" arrivalLane="23800191#2_0" arrivalPos="38.41" arrivalSpeed="11.34" duration="6.00" routeLength="33.31" waitSteps="0" rerouteNo="1" devices="tripinfo_136022_136022_411 hbefa_136022_136022_411" vType="DEFAULT_VEHTYPE" vaporized="">
        <emissions CO_abs="330.814788" CO2_abs="22618.960680" HC_abs="7.741414" PMx_abs="2.790648" NOx_abs="48.098214" fuel_abs="9.017828"/>
    </tripinfo>
    <tripinfo id="182087_182087_431" depart="27000.00" departLane="4380937#2_0" departPos="5.10" departSpeed="0.00" departDelay="0.00" arrival="27011.00" arrivalLane="4380937#3_0" arrivalPos="72.76" arrivalSpeed="13.41" duration="11.00" routeLength="103.50" waitSteps="0" rerouteNo="2" devices="tripinfo_182087_182087_431 hbefa_182087_182087_431" vType="DEFAULT_VEHTYPE" vaporized="">
        <emissions CO_abs="506.122066" CO2_abs="39528.421346" HC_abs="12.316051" PMx_abs="4.612790" NOx_abs="82.524503" fuel_abs="15.759374"/>
    </tripinfo>
    <tripinfo id="72912_72912_384" depart="27003.00" departLane="9207803_0" departPos="5.10" departSpeed="0.00" departDelay="3.00" arrival="27013.00" arrivalLane="9207803_0" arrivalPos="69.23" arrivalSpeed="7.31" duration="10.00" routeLength="64.13" waitSteps="0" rerouteNo="1" devices="tripinfo_72912_72912_384 hbefa_72912_72912_384" vType="DEFAULT_VEHTYPE" vaporized="">
        <emissions CO_abs="157.605856" CO2_abs="16363.857984" HC_abs="5.064953" PMx_abs="1.563044" NOx_abs="31.387619" fuel_abs="6.524016"/>
    </tripinfo>
    <tripinfo id="105435_105435_398" depart="27003.00" departLane="145474196#1_0" departPos="5.10" departSpeed="0.00" departDelay="3.00" arrival="27014.00" arrivalLane="145474196#1_0" arrivalPos="94.12" arrivalSpeed="10.65" duration="11.00" routeLength="89.02" waitSteps="0" rerouteNo="1" devices="tripinfo_105435_105435_398 hbefa_105435_105435_398" vType="DEFAULT_VEHTYPE" vaporized="">
        <emissions CO_abs="518.534128" CO2_abs="34979.220671" HC_abs="11.787098" PMx_abs="4.373415" NOx_abs="75.096367" fuel_abs="13.945673"/>
    </tripinfo>
    <tripinfo id="251564_251564_457" depart="27002.00" departLane="51113317_0" departPos="5.10" departSpeed="0.00" departDelay="0.00" arrival="27014.00" arrivalLane="51113317_0" arrivalPos="125.08" arrivalSpeed="13.12" duration="12.00" routeLength="119.98" waitSteps="0" rerouteNo="1" devices="tripinfo_251564_251564_457 hbefa_251564_251564_457" vType="DEFAULT_VEHTYPE" vaporized="">
        <emissions CO_abs="494.527110" CO2_abs="38899.322393" HC_abs="12.123831" PMx_abs="4.503714" NOx_abs="80.994653" fuel_abs="15.508562"/>
    </tripinfo>
    <tripinfo id="92380_92380_392" depart="27000.00" departLane="-154755073#3_0" departPos="5.10" departSpeed="0.00" departDelay="0.00" arrival="27015.00" arrivalLane="-154755073#3_0" arrivalPos="102.52" arrivalSpeed="8.16" duration="15.00" routeLength="97.42" waitSteps="0" rerouteNo="1" devices="tripinfo_92380_92380_392 hbefa_92380_92380_392" vType="DEFAULT_VEHTYPE" vaporized="">
        <emissions CO_abs="196.214653" CO2_abs="22458.154580" HC_abs="6.739415" PMx_abs="2.062512" NOx_abs="42.411958" fuel_abs="8.953718"/>
    </tripinfo>
    <tripinfo id="84049_84049_390" depart="27006.00" departLane="9207803_0" departPos="5.10" departSpeed="0.00" departDelay="6.00" arrival="27016.00" arrivalLane="9207803_0" arrivalPos="69.23" arrivalSpeed="8.09" duration="10.00" routeLength="64.13" waitSteps="0" rerouteNo="1" devices="tripinfo_84049_84049_390 hbefa_84049_84049_390" vType="DEFAULT_VEHTYPE" vaporized="">
        <emissions CO_abs="189.350340" CO2_abs="18077.669902" HC_abs="5.650805" PMx_abs="1.810957" NOx_abs="35.387175" fuel_abs="7.207287"/>
    </tripinfo>
    <tripinfo id="232041_232041_451" depart="27002.00" departLane="28523795_0" departPos="5.10" departSpeed="0.00" departDelay="0.00" arrival="27019.00" arrivalLane="28523795_0" arrivalPos="192.02" arrivalSpeed="13.48" duration="17.00" routeLength="186.92" waitSteps="0" rerouteNo="1" devices="tripinfo_232041_232041_451 hbefa_232041_232041_451" vType="DEFAULT_VEHTYPE" vaporized="">
        <emissions CO_abs="499.224250" CO2_abs="44464.037243" HC_abs="13.057046" PMx_abs="4.765749" NOx_abs="90.389099" fuel_abs="17.727131"/>
    </tripinfo>
    <tripinfo id="135880_135880_411" depart="27000.00" departLane="150039002#2_0" departPos="5.10" departSpeed="0.00" departDelay="0.00" arrival="27022.00" arrivalLane="150039002#2_0" arrivalPos="249.40" arrivalSpeed="12.84" duration="22.00" routeLength="244.30" waitSteps="0" rerouteNo="1" devices="tripinfo_135880_135880_411 hbefa_135880_135880_411" vType="DEFAULT_VEHTYPE" vaporized="">
        <emissions CO_abs="532.682750" CO2_abs="50063.840042" HC_abs="14.408758" PMx_abs="5.146132" NOx_abs="100.594420" fuel_abs="19.959688"/>
    </tripinfo>
    <tripinfo id="219187_219187_446" depart="27000.00" departLane="144935690_0" departPos="5.10" departSpeed="0.00" departDelay="0.00" arrival="27022.00" arrivalLane="25997632_0" arrivalPos="136.14" arrivalSpeed="13.54" duration="22.00" routeLength="241.37" waitSteps="0" rerouteNo="0" devices="tripinfo_219187_219187_446 hbefa_219187_219187_446" vType="DEFAULT_VEHTYPE" vaporized="">
        <emissions CO_abs="534.335689" CO2_abs="49053.204694" HC_abs="14.341165" PMx_abs="5.100470" NOx_abs="98.797214" fuel_abs="19.556763"/>
    </tripinfo>
    <tripinfo id="206737_206737_440" depart="27007.00" departLane="-29206900_0" departPos="5.10" departSpeed="0.00" departDelay="0.00" arrival="27022.00" arrivalLane="29207110_0" arrivalPos="28.94" arrivalSpeed="12.00" duration="15.00" routeLength="103.46" waitSteps="0" rerouteNo="1" devices="tripinfo_206737_206737_440 hbefa_206737_206737_440" vType="DEFAULT_VEHTYPE" vaporized="">
        <emissions CO_abs="472.776789" CO2_abs="38768.611977" HC_abs="12.371583" PMx_abs="4.286416" NOx_abs="79.046796" fuel_abs="15.456445"/>
    </tripinfo>
    <tripinfo id="110327_110327_401" depart="27000.00" departLane="53212166#0_0" departPos="5.10" departSpeed="0.00" departDelay="0.00" arrival="27023.00" arrivalLane="28542995#2_2" arrivalPos="61.74" arrivalSpeed="12.72" duration="23.00" routeLength="231.82" waitSteps="0" rerouteNo="1" devices="tripinfo_110327_110327_401 hbefa_110327_110327_401" vType="DEFAULT_VEHTYPE" vaporized="">
        <emissions CO_abs="584.812197" CO2_abs="50542.758071" HC_abs="15.263519" PMx_abs="5.431089" NOx_abs="102.854849" fuel_abs="20.150620"/>
    </tripinfo>
    <tripinfo id="225242_225242_449" depart="27000.00" departLane="154755124_0" departPos="5.10" departSpeed="0.00" departDelay="0.00" arrival="27024.00" arrivalLane="4380937#3_1" arrivalPos="72.76" arrivalSpeed="12.90" duration="24.00" routeLength="189.24" waitSteps="0" rerouteNo="2" devices="tripinfo_225242_225242_449 hbefa_225242_225242_449" vType="DEFAULT_VEHTYPE" vaporized="">
        <emissions CO_abs="631.968490" CO2_abs="53751.544056" HC_abs="16.576522" PMx_abs="5.862670" NOx_abs="109.341709" fuel_abs="21.429912"/>
    </tripinfo>
    <tripinfo id="225541_225541_450" depart="27000.00" departLane="9207803_0" departPos="5.10" departSpeed="0.00" departDelay="0.00" arrival="27024.00" arrivalLane="154755073#3_0" arrivalPos="102.52" arrivalSpeed="7.79" duration="24.00" routeLength="166.65" waitSteps="0" rerouteNo="1" devices="tripinfo_225541_225541_450 hbefa_225541_225541_450" vType="DEFAULT_VEHTYPE" vaporized="">
        <emissions CO_abs="286.038310" CO2_abs="31449.679066" HC_abs="9.462511" PMx_abs="2.786362" NOx_abs="59.624618" fuel_abs="12.538500"/>
    </tripinfo>
    <tripinfo id="148867_148867_417" depart="27006.00" departLane="3065455_0" departPos="5.10" departSpeed="0.00" departDelay="6.00" arrival="27024.00" arrivalLane="23800191#0_0" arrivalPos="143.94" arrivalSpeed="12.89" duration="18.00" routeLength="194.49" waitSteps="0" rerouteNo="1" devices="tripinfo_148867_148867_417 hbefa_148867_148867_417" vType="DEFAULT_VEHTYPE" vaporized="">
        <emissions CO_abs="585.006342" CO2_abs="48321.837844" HC_abs="14.618074" PMx_abs="5.299320" NOx_abs="99.562947" fuel_abs="19.265176"/>
    </tripinfo>
    <tripinfo id="141415_141415_415" depart="27003.00" departLane="150039002#2_0" departPos="5.10" departSpeed="0.00" departDelay="3.00" arrival="27025.00" arrivalLane="150039002#2_0" arrivalPos="249.40" arrivalSpeed="13.42" duration="22.00" routeLength="244.30" waitSteps="0" rerouteNo="1" devices="tripinfo_141415_141415_415 hbefa_141415_141415_415" vType="DEFAULT_VEHTYPE" vaporized="">
        <emissions CO_abs="504.540982" CO2_abs="50387.609937" HC_abs="14.134535" PMx_abs="5.274811" NOx_abs="100.705871" fuel_abs="20.088771"/>
    </tripinfo>
    <tripinfo id="136596_136596_411" depart="27003.00" departLane="131651824_0" departPos="5.10" departSpeed="0.00" departDelay="3.00" arrival="27026.00" arrivalLane="4400211#0_0" arrivalPos="197.56" arrivalSpeed="12.95" duration="23.00" routeLength="253.49" waitSteps="0" rerouteNo="1" devices="tripinfo_136596_136596_411 hbefa_136596_136596_411" vType="DEFAULT_VEHTYPE" vaporized="">
        <emissions CO_abs="562.793754" CO2_abs="52990.964041" HC_abs="15.246041" PMx_abs="5.516739" NOx_abs="106.608067" fuel_abs="21.126688"/>
    </tripinfo>
    <tripinfo id="220353_220353_447" depart="27001.00" departLane="-165515969#3_0" departPos="5.10" departSpeed="0.00" departDelay="0.00" arrival="27026.00" arrivalLane="-165511531#0_0" arrivalPos="53.73" arrivalSpeed="13.16" duration="25.00" routeLength="345.81" waitSteps="0" rerouteNo="2" devices="tripinfo_220353_220353_447 hbefa_220353_220353_447" vType="DEFAULT_VEHTYPE" vaporized="">
        <emissions CO_abs="2254.079490" CO2_abs="135345.162815" HC_abs="45.404369" PMx_abs="17.562153" NOx_abs="301.122613" fuel_abs="53.960071"/>
    </tripinfo>
    <tripinfo id="68737_68737_381" depart="27013.00" departLane="23493176_0" departPos="5.10" departSpeed="0.00" departDelay="13.00" arrival="27027.00" arrivalLane="23493176_1" arrivalPos="83.31" arrivalSpeed="5.91" duration="14.00" routeLength="78.21" waitSteps="0" rerouteNo="0" devices="tripinfo_68737_68737_381 hbefa_68737_68737_381" vType="DEFAULT_VEHTYPE" vaporized="">
        <emissions CO_abs="263.813946" CO2_abs="24286.343115" HC_abs="7.861129" PMx_abs="2.422222" NOx_abs="47.455396" fuel_abs="9.682588"/>
    </tripinfo>
    <tripinfo id="134089_134089_411" depart="27000.00" departLane="23800191#2_0" departPos="5.10" departSpeed="0.00" departDelay="0.00" arrival="27028.00" arrivalLane="4400211#0_0" arrivalPos="197.56" arrivalSpeed="13.69" duration="28.00" routeLength="291.90" waitSteps="0" rerouteNo="1" devices="tripinfo_134089_134089_411 hbefa_134089_134089_411" vType="DEFAULT_VEHTYPE" vaporized="">
        <emissions CO_abs="510.659376" CO2_abs="59983.970349" HC_abs="16.184399" PMx_abs="5.452129" NOx_abs="115.521965" fuel_abs="23.914695"/>
    </tripinfo>
    <tripinfo id="122617_122617_406" depart="27000.00" departLane="131651824_0" departPos="5.10" departSpeed="0.00" departDelay="0.00" arrival="27029.00" arrivalLane="130875842_0" arrivalPos="81.21" arrivalSpeed="13.76" duration="29.00" routeLength="334.70" waitSteps="0" rerouteNo="1" devices="tripinfo_122617_122617_406 hbefa_122617_122617_406" vType="DEFAULT_VEHTYPE" vaporized="">
        <emissions CO_abs="819.423772" CO2_abs="73672.883917" HC_abs="21.378090" PMx_abs="7.748189" NOx_abs="149.615190" fuel_abs="29.372253"/>
    </tripinfo>
    <tripinfo id="188835_188835_434" depart="27006.00" departLane="187965762#1_0" departPos="5.10" departSpeed="0.00" departDelay="6.00" arrival="27030.00" arrivalLane="187965762#2_0" arrivalPos="85.18" arrivalSpeed="8.03" duration="24.00" routeLength="168.92" waitSteps="0" rerouteNo="1" devices="tripinfo_188835_188835_434 hbefa_188835_188835_434" vType="DEFAULT_VEHTYPE" vaporized="">
        <emissions CO_abs="252.225434" CO2_abs="30263.842610" HC_abs="8.818860" PMx_abs="2.697937" NOx_abs="56.881844" fuel_abs="12.065726"/>
    </tripinfo>
    <tripinfo id="75851_75851_386" depart="27002.00" departLane="28542995#2_0" departPos="5.10" departSpeed="0.00" departDelay="2.00" arrival="27030.00" arrivalLane="23493181#0_0" arrivalPos="88.20" arrivalSpeed="5.05" duration="28.00" routeLength="144.84" waitSteps="6" rerouteNo="1" devices="tripinfo_75851_75851_386 hbefa_75851_75851_386" vType="DEFAULT_VEHTYPE" vaporized="">
        <emissions CO_abs="551.134026" CO2_abs="42582.263059" HC_abs="14.739805" PMx_abs="4.702946" NOx_abs="86.116287" fuel_abs="16.976888"/>
    </tripinfo>
    <tripinfo id="187318_187318_433" depart="27013.00" departLane="-83823403#2_0" departPos="5.10" departSpeed="0.00" departDelay="0.00" arrival="27030.00" arrivalLane="-83823403#2_0" arrivalPos="184.87" arrivalSpeed="13.65" duration="17.00" routeLength="179.77" waitSteps="0" rerouteNo="0" devices="tripinfo_187318_187318_433 hbefa_187318_187318_433" vType="DEFAULT_VEHTYPE" vaporized="">
        <emissions CO_abs="563.473427" CO2_abs="47329.274841" HC_abs="14.285023" PMx_abs="5.062503" NOx_abs="96.949683" fuel_abs="18.869456"/>
    </tripinfo>
    <tripinfo id="104726_104726_398" depart="27000.00" departLane="23471158#5_0" departPos="5.10" departSpeed="0.00" departDelay="0.00" arrival="27032.00" arrivalLane="32856811#2_0" arrivalPos="144.91" arrivalSpeed="13.69" duration="32.00" routeLength="464.21" waitSteps="0" rerouteNo="0" devices="tripinfo_104726_104726_398 hbefa_104726_104726_398" vType="DEFAULT_VEHTYPE" vaporized="">
        <emissions CO_abs="2049.203512" CO2_abs="131301.037024" HC_abs="42.614916" PMx_abs="15.707520" NOx_abs="285.862355" fuel_abs="52.347755"/>
    </tripinfo>
    <tripinfo id="212444_212444_443" depart="27003.00" departLane="166155712#0_0" departPos="5.10" departSpeed="0.00" departDelay="0.00" arrival="27032.00" arrivalLane="33469672_0" arrivalPos="142.78" arrivalSpeed="12.94" duration="29.00" routeLength="317.06" waitSteps="0" rerouteNo="1" devices="tripinfo_212444_212444_443 hbefa_212444_212444_443" vType="DEFAULT_VEHTYPE" vaporized="">
        <emissions CO_abs="901.846190" CO2_abs="75465.096984" HC_abs="22.671087" PMx_abs="8.377107" NOx_abs="155.459892" fuel_abs="30.086777"/>
    </tripinfo>
    <tripinfo id="144652_144652_416" depart="27000.00" departLane="3065455_0" departPos="5.10" departSpeed="0.00" departDelay="0.00" arrival="27033.00" arrivalLane="130659365_0" arrivalPos="223.21" arrivalSpeed="9.46" duration="33.00" routeLength="365.42" waitSteps="0" rerouteNo="1" devices="tripinfo_144652_144652_416 hbefa_144652_144652_416" vType="DEFAULT_VEHTYPE" vaporized="">
        <emissions CO_abs="768.136336" CO2_abs="72167.845724" HC_abs="20.726838" PMx_abs="7.549444" NOx_abs="145.359365" fuel_abs="28.772216"/>
    </tripinfo>
    <tripinfo id="208001_208001_441" depart="27001.00" departLane="-83823403#2_0" departPos="5.10" departSpeed="0.00" departDelay="0.00" arrival="27033.00" arrivalLane="23015529#0_0" arrivalPos="184.87" arrivalSpeed="12.95" duration="32.00" routeLength="364.64" waitSteps="0" rerouteNo="1" devices="tripinfo_208001_208001_441 hbefa_208001_208001_441" vType="DEFAULT_VEHTYPE" vaporized="">
        <emissions CO_abs="1066.525075" CO2_abs="80748.272884" HC_abs="25.084804" PMx_abs="9.656017" NOx_abs="170.529333" fuel_abs="32.193096"/>
    </tripinfo>
    <tripinfo id="217202_217202_446" depart="27007.00" departLane="-83823403#2_0" departPos="5.10" departSpeed="0.00" departDelay="0.00" arrival="27033.00" arrivalLane="23015533_0" arrivalPos="110.79" arrivalSpeed="13.45" duration="26.00" routeLength="290.56" waitSteps="0" rerouteNo="1" devices="tripinfo_217202_217202_446 hbefa_217202_217202_446" vType="DEFAULT_VEHTYPE" vaporized="">
        <emissions CO_abs="831.662371" CO2_abs="70868.427489" HC_abs="21.101021" PMx_abs="7.712643" NOx_abs="145.313895" fuel_abs="28.254157"/>
    </tripinfo>
    <tripinfo id="103637_103637_397" depart="27000.00" departLane="145474196#1_0" departPos="5.10" departSpeed="0.00" departDelay="0.00" arrival="27034.00" arrivalLane="150039002#2_1" arrivalPos="249.40" arrivalSpeed="12.92" duration="34.00" routeLength="361.28" waitSteps="0" rerouteNo="0" devices="tripinfo_103637_103637_397 hbefa_103637_103637_397" vType="DEFAULT_VEHTYPE" vaporized="">
        <emissions CO_abs="815.137321" CO2_abs="83468.333152" HC_abs="23.301889" PMx_abs="8.303461" NOx_abs="165.240141" fuel_abs="33.277550"/>
    </tripinfo>
    <tripinfo id="154499_154499_420" depart="27000.00" departLane="28542995#0_0" departPos="5.10" departSpeed="0.00" departDelay="0.00" arrival="27036.00" arrivalLane="23493260#4_1" arrivalPos="126.60" arrivalSpeed="13.32" duration="36.00" routeLength="435.19" waitSteps="0" rerouteNo="1" devices="tripinfo_154499_154499_420 hbefa_154499_154499_420" vType="DEFAULT_VEHTYPE" vaporized="">
        <emissions CO_abs="946.958376" CO2_abs="92388.919477" HC_abs="25.980847" PMx_abs="9.583820" NOx_abs="185.263027" fuel_abs="36.834053"/>
    </tripinfo>
    <tripinfo id="103310_103310_397" depart="27000.00" departLane="83703645_0" departPos="5.10" departSpeed="0.00" departDelay="0.00" arrival="27037.00" arrivalLane="23493177#0_0" arrivalPos="166.52" arrivalSpeed="8.27" duration="37.00" routeLength="279.85" waitSteps="0" rerouteNo="1" devices="tripinfo_103310_103310_397 hbefa_103310_103310_397" vType="DEFAULT_VEHTYPE" vaporized="">
        <emissions CO_abs="481.955452" CO2_abs="56513.239995" HC_abs="16.251724" PMx_abs="5.141355" NOx_abs="107.064906" fuel_abs="22.530956"/>
    </tripinfo>
    <tripinfo id="238887_238887_451" depart="27010.00" departLane="-83823403#2_0" departPos="5.10" departSpeed="0.00" departDelay="0.00" arrival="27037.00" arrivalLane="23015533_0" arrivalPos="110.79" arrivalSpeed="13.81" duration="27.00" routeLength="290.56" waitSteps="0" rerouteNo="1" devices="tripinfo_238887_238887_451 hbefa_238887_238887_451" vType="DEFAULT_VEHTYPE" vaporized="">
        <emissions CO_abs="783.720841" CO2_abs="69029.803185" HC_abs="20.358158" PMx_abs="7.269520" NOx_abs="140.320960" fuel_abs="27.521125"/>
    </tripinfo>
    <tripinfo id="138122_138122_412" depart="27009.00" departLane="131651824_0" departPos="5.10" departSpeed="0.00" departDelay="9.00" arrival="27038.00" arrivalLane="130875842_0" arrivalPos="81.21" arrivalSpeed="12.97" duration="29.00" routeLength="334.70" waitSteps="0" rerouteNo="1" devices="tripinfo_138122_138122_412 hbefa_138122_138122_412" vType="DEFAULT_VEHTYPE" vaporized="">
        <emissions CO_abs="810.946247" CO2_abs="70352.096024" HC_abs="20.647852" PMx_abs="7.839196" NOx_abs="144.469107" fuel_abs="28.048304"/>
    </tripinfo>
    <tripinfo id="118681_118681_405" depart="27000.00" departLane="23471158#6_0" departPos="5.10" departSpeed="0.00" departDelay="0.00" arrival="27039.00" arrivalLane="32856811#2_1" arrivalPos="144.91" arrivalSpeed="12.82" duration="39.00" routeLength="447.44" waitSteps="0" rerouteNo="1" devices="tripinfo_118681_118681_405 hbefa_118681_118681_405" vType="DEFAULT_VEHTYPE" vaporized="">
        <emissions CO_abs="1281.346139" CO2_abs="98396.177135" HC_abs="30.298303" PMx_abs="11.494090" NOx_abs="206.819900" fuel_abs="39.229048"/>
    </tripinfo>
    <tripinfo id="218769_218769_446" depart="27003.00" departLane="-55940134_0" departPos="5.10" departSpeed="0.00" departDelay="3.00" arrival="27040.00" arrivalLane="-144935692#1_1" arrivalPos="103.61" arrivalSpeed="12.99" duration="37.00" routeLength="447.77" waitSteps="0" rerouteNo="0" devices="tripinfo_218769_218769_446 hbefa_218769_218769_446" vType="DEFAULT_VEHTYPE" vaporized="">
        <emissions CO_abs="654.514111" CO2_abs="73519.340255" HC_abs="19.680602" PMx_abs="6.807295" NOx_abs="143.395539" fuel_abs="29.311045"/>
    </tripinfo>
    <tripinfo id="171544_171544_426" depart="27000.00" departLane="187965762#1_0" departPos="5.10" departSpeed="0.00" departDelay="0.00" arrival="27040.00" arrivalLane="23800191#0_0" arrivalPos="143.94" arrivalSpeed="13.67" duration="40.00" routeLength="368.51" waitSteps="0" rerouteNo="1" devices="tripinfo_171544_171544_426 hbefa_171544_171544_426" vType="DEFAULT_VEHTYPE" vaporized="">
        <emissions CO_abs="571.773369" CO2_abs="63856.152879" HC_abs="17.774538" PMx_abs="5.998842" NOx_abs="123.565190" fuel_abs="25.458471"/>
    </tripinfo>
    <tripinfo id="244420_244420_453" depart="27015.00" departLane="-165515969#3_0" departPos="5.10" departSpeed="0.00" departDelay="0.00" arrival="27040.00" arrivalLane="-165511531#0_0" arrivalPos="53.73" arrivalSpeed="13.50" duration="25.00" routeLength="345.81" waitSteps="0" rerouteNo="2" devices="tripinfo_244420_244420_453 hbefa_244420_244420_453" vType="DEFAULT_VEHTYPE" vaporized="">
        <emissions CO_abs="2109.416038" CO2_abs="131244.038733" HC_abs="43.174597" PMx_abs="16.501219" NOx_abs="289.270121" fuel_abs="52.325017"/>
    </tripinfo>
    <tripinfo id="211099_211099_442" depart="27013.00" departLane="166155712#0_0" departPos="5.10" departSpeed="0.00" departDelay="0.00" arrival="27041.00" arrivalLane="33469672_0" arrivalPos="142.78" arrivalSpeed="13.87" duration="28.00" routeLength="317.06" waitSteps="0" rerouteNo="0" devices="tripinfo_211099_211099_442 hbefa_211099_211099_442" vType="DEFAULT_VEHTYPE" vaporized="">
        <emissions CO_abs="859.682255" CO2_abs="72768.729939" HC_abs="21.618077" PMx_abs="8.048607" NOx_abs="149.825953" fuel_abs="29.011779"/>
    </tripinfo>
    <tripinfo id="184987_184987_431" depart="27000.00" departLane="-186463490#0_0" departPos="5.10" departSpeed="0.00" departDelay="0.00" arrival="27042.00" arrivalLane="-144935692#1_1" arrivalPos="103.61" arrivalSpeed="13.34" duration="42.00" routeLength="500.46" waitSteps="0" rerouteNo="1" devices="tripinfo_184987_184987_431 hbefa_184987_184987_431" vType="DEFAULT_VEHTYPE" vaporized="">
        <emissions CO_abs="681.945691" CO2_abs="75909.434063" HC_abs="20.434060" PMx_abs="7.155828" NOx_abs="148.333310" fuel_abs="30.263937"/>
    </tripinfo>
    <tripinfo id="197472_197472_436" depart="27006.00" departLane="23800191#2_0" departPos="5.10" departSpeed="0.00" departDelay="6.00" arrival="27042.00" arrivalLane="130875842_0" arrivalPos="81.21" arrivalSpeed="12.83" duration="36.00" routeLength="373.11" waitSteps="0" rerouteNo="1" devices="tripinfo_197472_197472_436 hbefa_197472_197472_436" vType="DEFAULT_VEHTYPE" vaporized="">
        <emissions CO_abs="1011.529479" CO2_abs="80727.114798" HC_abs="24.981392" PMx_abs="8.979865" NOx_abs="167.113601" fuel_abs="32.184659"/>
    </tripinfo>
    <tripinfo id="101376_101376_396" depart="27003.00" departLane="23471158#0_0" departPos="5.10" departSpeed="0.00" departDelay="3.00" arrival="27043.00" arrivalLane="32856811#2_0" arrivalPos="144.91" arrivalSpeed="12.69" duration="40.00" routeLength="664.02" waitSteps="0" rerouteNo="1" devices="tripinfo_101376_101376_396 hbefa_101376_101376_396" vType="DEFAULT_VEHTYPE" vaporized="">
        <emissions CO_abs="3195.485791" CO2_abs="191526.463912" HC_abs="63.518417" PMx_abs="24.608896" NOx_abs="426.539929" fuel_abs="76.358726"/>
    </tripinfo>
    <tripinfo id="245947_245947_454" depart="27016.00" departLane="-83823403#2_0" departPos="5.10" departSpeed="0.00" departDelay="0.00" arrival="27043.00" arrivalLane="23015533_0" arrivalPos="110.79" arrivalSpeed="13.27" duration="27.00" routeLength="290.56" waitSteps="0" rerouteNo="1" devices="tripinfo_245947_245947_454 hbefa_245947_245947_454" vType="DEFAULT_VEHTYPE" vaporized="">
        <emissions CO_abs="883.595355" CO2_abs="71275.369444" HC_abs="21.714178" PMx_abs="7.948889" NOx_abs="147.745933" fuel_abs="28.416396"/>
    </tripinfo>
    <tripinfo id="84113_84113_390" depart="27000.00" departLane="150031205#0_0" departPos="5.10" departSpeed="0.00" departDelay="0.00" arrival="27043.00" arrivalLane="23471158#10_0" arrivalPos="144.68" arrivalSpeed="23.53" duration="43.00" routeLength="456.75" waitSteps="2" rerouteNo="1" devices="tripinfo_84113_84113_390 hbefa_84113_84113_390" vType="DEFAULT_VEHTYPE" vaporized="">
        <emissions CO_abs="1870.153091" CO2_abs="134446.359581" HC_abs="42.459372" PMx_abs="15.633769" NOx_abs="285.280517" fuel_abs="53.601718"/>
    </tripinfo>
    <tripinfo id="224931_224931_449" depart="27026.00" departLane="-28523795_0" departPos="5.10" departSpeed="0.00" departDelay="0.00" arrival="27044.00" arrivalLane="-28523795_0" arrivalPos="192.02" arrivalSpeed="13.51" duration="18.00" routeLength="186.92" waitSteps="0" rerouteNo="1" devices="tripinfo_224931_224931_449 hbefa_224931_224931_449" vType="DEFAULT_VEHTYPE" vaporized="">
        <emissions CO_abs="553.438368" CO2_abs="47750.258897" HC_abs="14.388414" PMx_abs="5.014895" NOx_abs="97.032095" fuel_abs="19.037296"/>
    </tripinfo>
    <tripinfo id="192246_192246_435" depart="27018.00" departLane="2511537#2_0" departPos="5.10" departSpeed="0.00" departDelay="18.00" arrival="27044.00" arrivalLane="2511537#2_0" arrivalPos="191.15" arrivalSpeed="8.28" duration="26.00" routeLength="186.05" waitSteps="0" rerouteNo="0" devices="tripinfo_192246_192246_435 hbefa_192246_192246_435" vType="DEFAULT_VEHTYPE" vaporized="">
        <emissions CO_abs="257.576557" CO2_abs="32474.581885" HC_abs="9.378523" PMx_abs="2.731683" NOx_abs="60.418733" fuel_abs="12.947113"/>
    </tripinfo>
    <tripinfo id="101794_101794_396" depart="27003.00" departLane="36454807#3-AddedOnRampEdge_0" departPos="5.10" departSpeed="0.00" departDelay="3.00" arrival="27044.00" arrivalLane="2832027#0_0" arrivalPos="102.82" arrivalSpeed="7.25" duration="41.00" routeLength="401.28" waitSteps="0" rerouteNo="3" devices="tripinfo_101794_101794_396 hbefa_101794_101794_396" vType="DEFAULT_VEHTYPE" vaporized="">
        <emissions CO_abs="1028.127057" CO2_abs="75343.229239" HC_abs="24.284188" PMx_abs="8.899016" NOx_abs="158.809127" fuel_abs="30.038184"/>
    </tripinfo>
    <tripinfo id="212327_212327_442" depart="27014.00" departLane="198147972_0" departPos="5.10" departSpeed="0.00" departDelay="0.00" arrival="27044.00" arrivalLane="4353628#1_0" arrivalPos="68.95" arrivalSpeed="13.16" duration="30.00" routeLength="339.08" waitSteps="0" rerouteNo="1" devices="tripinfo_212327_212327_442 hbefa_212327_212327_442" vType="DEFAULT_VEHTYPE" vaporized="">
        <emissions CO_abs="554.652318" CO2_abs="59644.255275" HC_abs="16.401890" PMx_abs="5.570434" NOx_abs="116.703165" fuel_abs="23.779256"/>
    </tripinfo>
    <tripinfo id="95606_95606_394" depart="27000.00" departLane="8225148_0" departPos="5.10" departSpeed="0.00" departDelay="0.00" arrival="27045.00" arrivalLane="145261451_0" arrivalPos="86.92" arrivalSpeed="12.70" duration="45.00" routeLength="515.94" waitSteps="0" rerouteNo="1" devices="tripinfo_95606_95606_394 hbefa_95606_95606_394" vType="DEFAULT_VEHTYPE" vaporized="">
        <emissions CO_abs="1230.545764" CO2_abs="116264.986352" HC_abs="33.035753" PMx_abs="11.999293" NOx_abs="234.179802" fuel_abs="46.353075"/>
    </tripinfo>
    <tripinfo id="123467_123467_406" depart="27008.00" departLane="23471158#6_0" departPos="5.10" departSpeed="0.00" departDelay="8.00" arrival="27046.00" arrivalLane="32856811#2_1" arrivalPos="144.91" arrivalSpeed="13.44" duration="38.00" routeLength="447.44" waitSteps="0" rerouteNo="1" devices="tripinfo_123467_123467_406 hbefa_123467_123467_406" vType="DEFAULT_VEHTYPE" vaporized="">
        <emissions CO_abs="1263.660371" CO2_abs="100865.503901" HC_abs="30.556021" PMx_abs="11.357530" NOx_abs="210.021823" fuel_abs="40.213533"/>
    </tripinfo>
    <tripinfo id="244003_244003_453" depart="27029.00" departLane="-28523795_0" departPos="5.10" departSpeed="0.00" departDelay="0.00" arrival="27046.00" arrivalLane="-28523795_0" arrivalPos="192.02" arrivalSpeed="13.65" duration="17.00" routeLength="186.92" waitSteps="0" rerouteNo="1" devices="tripinfo_244003_244003_453 hbefa_244003_244003_453" vType="DEFAULT_VEHTYPE" vaporized="">
        <emissions CO_abs="532.795341" CO2_abs="45419.884114" HC_abs="13.631588" PMx_abs="4.897448" NOx_abs="92.835621" fuel_abs="18.108212"/>
    </tripinfo>
    <tripinfo id="227630_227630_450" depart="27017.00" departLane="166155712#0_0" departPos="5.10" departSpeed="0.00" departDelay="0.00" arrival="27046.00" arrivalLane="33469672_0" arrivalPos="142.78" arrivalSpeed="13.44" duration="29.00" routeLength="317.06" waitSteps="0" rerouteNo="1" devices="tripinfo_227630_227630_450 hbefa_227630_227630_450" vType="DEFAULT_VEHTYPE" vaporized="">
        <emissions CO_abs="789.274319" CO2_abs="74728.491625" HC_abs="21.391055" PMx_abs="7.738351" NOx_abs="150.122177" fuel_abs="29.793108"/>
    </tripinfo>
    <tripinfo id="221885_221885_448" depart="27017.00" departLane="-175607927#0_0" departPos="5.10" departSpeed="0.00" departDelay="0.00" arrival="27046.00" arrivalLane="-29214406_0" arrivalPos="179.38" arrivalSpeed="13.59" duration="29.00" routeLength="317.06" waitSteps="0" rerouteNo="0" devices="tripinfo_221885_221885_448 hbefa_221885_221885_448" vType="DEFAULT_VEHTYPE" vaporized="">