<?xml version="1.0" encoding="UTF-8"?>

<!-- generated on Mon Feb 24 09:03:39 2014 by SUMO sumo Version dev-SVN-r15641
<?xml version="1.0" encoding="UTF-8"?>

<configuration xmlns:xsi="http://www.w3.org/2001/XMLSchema-instance" xsi:noNamespaceSchemaLocation="http://sumo-sim.org/xsd/sumoConfiguration.xsd">

    <input>
        <net-file value="data/map.net.xml"/>
        <route-files value="data/map.rou.xml"/>
    </input>

    <output>
        <tripinfo-output value="data/maptripinfoWO.out.xml"/>
        <save-state.prefix value="data/state"/>
    </output>

    <time>
        <begin value="25200"/>
        <end value="26100"/>
    </time>

    <processing>
        <route-steps value="200"/>
        <scale value="0.8"/>
        <time-to-teleport value="300"/>
        <lanechange.allow-swap value="true"/>
    </processing>

    <report>
        <verbose value="true"/>
        <no-warnings value="false"/>
        <no-step-log value="true"/>
    </report>

    <emissions>
        <device.hbefa.probability value="1"/>
    </emissions>

    <traci_server>
        <remote-port value="8814"/>
    </traci_server>

</configuration>
-->

<tripinfos>
    <tripinfo id="160035_160035_421" depart="25200.00" departLane="8225127_0" departPos="5.10" departSpeed="0.00" departDelay="0.00" arrival="25206.00" arrivalLane="8225127_0" arrivalPos="38.87" arrivalSpeed="10.85" duration="6.00" routeLength="33.77" waitSteps="0" rerouteNo="0" devices="tripinfo_160035_160035_421 hbefa_160035_160035_421" vType="DEFAULT_VEHTYPE" vaporized="">
        <emissions CO_abs="304.509053" CO2_abs="20971.744370" HC_abs="7.245273" PMx_abs="2.558302" NOx_abs="44.331738" fuel_abs="8.361108"/>
    </tripinfo>
    <tripinfo id="146065_146065_416" depart="25200.00" departLane="185767959#0_0" departPos="5.10" departSpeed="0.00" departDelay="0.00" arrival="25210.00" arrivalLane="9207798_1" arrivalPos="76.33" arrivalSpeed="19.18" duration="10.00" routeLength="90.29" waitSteps="0" rerouteNo="0" devices="tripinfo_146065_146065_416 hbefa_146065_146065_416" vType="DEFAULT_VEHTYPE" vaporized="">
        <emissions CO_abs="906.227685" CO2_abs="57289.894203" HC_abs="19.253381" PMx_abs="7.416430" NOx_abs="125.803321" fuel_abs="22.840601"/>
    </tripinfo>
    <tripinfo id="135816_135816_411" depart="25200.00" departLane="23471158#6_0" departPos="5.10" departSpeed="0.00" departDelay="0.00" arrival="25218.00" arrivalLane="23471158#9_0" arrivalPos="213.75" arrivalSpeed="27.49" duration="18.00" routeLength="308.43" waitSteps="0" rerouteNo="0" devices="tripinfo_135816_135816_411 hbefa_135816_135816_411" vType="DEFAULT_VEHTYPE" vaporized="">
        <emissions CO_abs="2295.681269" CO2_abs="132973.194973" HC_abs="44.571469" PMx_abs="16.939972" NOx_abs="297.408299" fuel_abs="53.014441"/>
    </tripinfo>
    <tripinfo id="137129_137129_412" depart="25207.00" departLane="154755085#0_0" departPos="5.10" departSpeed="0.00" departDelay="0.00" arrival="25222.00" arrivalLane="154755085#1_0" arrivalPos="144.95" arrivalSpeed="12.81" duration="15.00" routeLength="164.24" waitSteps="0" rerouteNo="0" devices="tripinfo_137129_137129_412 hbefa_137129_137129_412" vType="DEFAULT_VEHTYPE" vaporized="">
        <emissions CO_abs="510.155623" CO2_abs="45010.065322" HC_abs="13.213793" PMx_abs="4.930622" NOx_abs="91.923625" fuel_abs="17.944824"/>
    </tripinfo>
    <tripinfo id="106717_106717_399" depart="25200.00" departLane="-154755100#1_0" departPos="5.10" departSpeed="0.00" departDelay="0.00" arrival="25223.00" arrivalLane="-154755100#0_0" arrivalPos="171.42" arrivalSpeed="12.84" duration="23.00" routeLength="263.89" waitSteps="0" rerouteNo="0" devices="tripinfo_106717_106717_399 hbefa_106717_106717_399" vType="DEFAULT_VEHTYPE" vaporized="">
        <emissions CO_abs="586.582969" CO2_abs="52821.405387" HC_abs="15.460312" PMx_abs="5.416493" NOx_abs="106.765326" fuel_abs="21.059087"/>
    </tripinfo>
    <tripinfo id="106746_106746_399" depart="25200.00" departLane="180723491_0" departPos="5.10" departSpeed="0.00" departDelay="0.00" arrival="25227.00" arrivalLane="154743410#0_0" arrivalPos="108.34" arrivalSpeed="12.90" duration="27.00" routeLength="223.23" waitSteps="0" rerouteNo="0" devices="tripinfo_106746_106746_399 hbefa_106746_106746_399" vType="DEFAULT_VEHTYPE" vaporized="">
        <emissions CO_abs="1413.699524" CO2_abs="96343.099919" HC_abs="31.794004" PMx_abs="11.902436" NOx_abs="207.034004" fuel_abs="38.410507"/>
    </tripinfo>
    <tripinfo id="100948_100948_396" depart="25200.00" departLane="154743410#2_0" departPos="5.10" departSpeed="0.00" departDelay="0.00" arrival="25228.00" arrivalLane="9207798_1" arrivalPos="76.33" arrivalSpeed="15.99" duration="28.00" routeLength="167.61" waitSteps="7" rerouteNo="0" devices="tripinfo_100948_100948_396 hbefa_100948_100948_396" vType="DEFAULT_VEHTYPE" vaporized="">
        <emissions CO_abs="1134.183049" CO2_abs="77829.040335" HC_abs="25.773352" PMx_abs="9.479977" NOx_abs="166.507005" fuel_abs="31.029237"/>
    </tripinfo>
    <tripinfo id="71540_71540_383" depart="25200.00" departLane="150031262#0_0" departPos="5.10" departSpeed="0.00" departDelay="0.00" arrival="25229.00" arrivalLane="145575263_1" arrivalPos="260.32" arrivalSpeed="12.84" duration="29.00" routeLength="322.07" waitSteps="0" rerouteNo="0" devices="tripinfo_71540_71540_383 hbefa_71540_71540_383" vType="DEFAULT_VEHTYPE" vaporized="">
        <emissions CO_abs="709.090624" CO2_abs="65505.614744" HC_abs="19.026717" PMx_abs="6.750109" NOx_abs="131.951324" fuel_abs="26.116086"/>
    </tripinfo>
    <tripinfo id="168852_168852_425" depart="25219.00" departLane="160971552_0" departPos="5.10" departSpeed="0.00" departDelay="2.00" arrival="25229.00" arrivalLane="160971552_0" arrivalPos="96.86" arrivalSpeed="19.18" duration="10.00" routeLength="91.76" waitSteps="0" rerouteNo="0" devices="tripinfo_168852_168852_425 hbefa_168852_168852_425" vType="DEFAULT_VEHTYPE" vaporized="">
        <emissions CO_abs="928.095018" CO2_abs="57603.858967" HC_abs="19.565392" PMx_abs="7.643231" NOx_abs="127.221578" fuel_abs="22.965772"/>
    </tripinfo>
    <tripinfo id="145303_145303_416" depart="25208.00" departLane="-200671461_0" departPos="5.10" departSpeed="0.00" departDelay="0.00" arrival="25230.00" arrivalLane="-50061433_0" arrivalPos="60.25" arrivalSpeed="13.64" duration="22.00" routeLength="212.51" waitSteps="0" rerouteNo="0" devices="tripinfo_145303_145303_416 hbefa_145303_145303_416" vType="DEFAULT_VEHTYPE" vaporized="">
        <emissions CO_abs="1026.095637" CO2_abs="73324.318436" HC_abs="23.556107" PMx_abs="8.990977" NOx_abs="156.355663" fuel_abs="29.233275"/>
    </tripinfo>
    <tripinfo id="105046_105046_398" depart="25200.00" departLane="36454807#3-AddedOnRampEdge_0" departPos="5.10" departSpeed="0.00" departDelay="0.00" arrival="25231.00" arrivalLane="23471158#9_0" arrivalPos="213.75" arrivalSpeed="26.88" duration="31.00" routeLength="496.50" waitSteps="0" rerouteNo="0" devices="tripinfo_105046_105046_398 hbefa_105046_105046_398" vType="DEFAULT_VEHTYPE" vaporized="">
        <emissions CO_abs="3344.302003" CO2_abs="195794.029144" HC_abs="65.856427" PMx_abs="25.341517" NOx_abs="438.193310" fuel_abs="78.060137"/>
    </tripinfo>
    <tripinfo id="116829_116829_404" depart="25200.00" departLane="4380937#2_0" departPos="5.10" departSpeed="0.00" departDelay="0.00" arrival="25232.00" arrivalLane="145575263_1" arrivalPos="260.32" arrivalSpeed="13.30" duration="32.00" routeLength="357.91" waitSteps="0" rerouteNo="0" devices="tripinfo_116829_116829_404 hbefa_116829_116829_404" vType="DEFAULT_VEHTYPE" vaporized="">
        <emissions CO_abs="846.495527" CO2_abs="71252.951052" HC_abs="21.387391" PMx_abs="7.790710" NOx_abs="146.383963" fuel_abs="28.407459"/>
    </tripinfo>
    <tripinfo id="95486_95486_394" depart="25200.00" departLane="23799989#0_0" departPos="5.10" departSpeed="0.00" departDelay="0.00" arrival="25232.00" arrivalLane="4400200_0" arrivalPos="166.23" arrivalSpeed="13.32" duration="32.00" routeLength="289.53" waitSteps="0" rerouteNo="0" devices="tripinfo_95486_95486_394 hbefa_95486_95486_394" vType="DEFAULT_VEHTYPE" vaporized="">
        <emissions CO_abs="584.565621" CO2_abs="56483.056425" HC_abs="16.582496" PMx_abs="5.723828" NOx_abs="112.163420" fuel_abs="22.518927"/>
    </tripinfo>
    <tripinfo id="87270_87270_391" depart="25203.00" departLane="36454807#3-AddedOnRampEdge_0" departPos="5.10" departSpeed="0.00" departDelay="3.00" arrival="25233.00" arrivalLane="23471158#9_0" arrivalPos="213.75" arrivalSpeed="27.68" duration="30.00" routeLength="496.50" waitSteps="0" rerouteNo="0" devices="tripinfo_87270_87270_391 hbefa_87270_87270_391" vType="DEFAULT_VEHTYPE" vaporized="">
        <emissions CO_abs="3193.059409" CO2_abs="188470.701843" HC_abs="62.713608" PMx_abs="24.150836" NOx_abs="420.754067" fuel_abs="75.140456"/>
    </tripinfo>
    <tripinfo id="136116_136116_411" depart="25219.00" departLane="154755085#0_0" departPos="5.10" departSpeed="0.00" departDelay="0.00" arrival="25235.00" arrivalLane="154755085#1_0" arrivalPos="144.95" arrivalSpeed="12.85" duration="16.00" routeLength="164.24" waitSteps="0" rerouteNo="0" devices="tripinfo_136116_136116_411 hbefa_136116_136116_411" vType="DEFAULT_VEHTYPE" vaporized="">
        <emissions CO_abs="468.087468" CO2_abs="44615.874034" HC_abs="12.901517" PMx_abs="4.511156" NOx_abs="89.168473" fuel_abs="17.787667"/>
    </tripinfo>
    <tripinfo id="122923_122923_406" depart="25200.00" departLane="36454807#1_0" departPos="5.10" departSpeed="0.00" departDelay="0.00" arrival="25238.00" arrivalLane="23471158#9_0" arrivalPos="213.75" arrivalSpeed="27.38" duration="38.00" routeLength="534.80" waitSteps="0" rerouteNo="0" devices="tripinfo_122923_122923_406 hbefa_122923_122923_406" vType="DEFAULT_VEHTYPE" vaporized="">
        <emissions CO_abs="3102.831287" CO2_abs="194440.304580" HC_abs="63.375844" PMx_abs="23.621368" NOx_abs="426.111666" fuel_abs="77.520442"/>
    </tripinfo>
    <tripinfo id="117072_117072_404" depart="25215.00" departLane="185767958#1_0" departPos="5.10" departSpeed="0.00" departDelay="15.00" arrival="25240.00" arrivalLane="36590979#0-AddedOffRampEdge_0" arrivalPos="103.44" arrivalSpeed="21.39" duration="25.00" routeLength="430.18" waitSteps="0" rerouteNo="0" devices="tripinfo_117072_117072_404 hbefa_117072_117072_404" vType="DEFAULT_VEHTYPE" vaporized="">
        <emissions CO_abs="1980.466253" CO2_abs="126512.708419" HC_abs="40.502619" PMx_abs="15.717254" NOx_abs="277.704408" fuel_abs="50.438727"/>
    </tripinfo>
    <tripinfo id="106412_106412_399" depart="25200.00" departLane="4380937#0_0" departPos="5.10" departSpeed="0.00" departDelay="0.00" arrival="25241.00" arrivalLane="145575263_1" arrivalPos="260.32" arrivalSpeed="13.33" duration="41.00" routeLength="481.40" waitSteps="0" rerouteNo="0" devices="tripinfo_106412_106412_399 hbefa_106412_106412_399" vType="DEFAULT_VEHTYPE" vaporized="">
        <emissions CO_abs="970.717784" CO2_abs="99204.297412" HC_abs="27.248237" PMx_abs="9.965085" NOx_abs="197.381799" fuel_abs="39.551244"/>
    </tripinfo>
    <tripinfo id="149330_149330_417" depart="25200.00" departLane="154755085#0_0" departPos="5.10" departSpeed="0.00" departDelay="0.00" arrival="25241.00" arrivalLane="4400311#0_0" arrivalPos="280.07" arrivalSpeed="7.49" duration="41.00" routeLength="299.36" waitSteps="0" rerouteNo="0" devices="tripinfo_149330_149330_417 hbefa_149330_149330_417" vType="DEFAULT_VEHTYPE" vaporized="">
        <emissions CO_abs="282.398278" CO2_abs="44246.660535" HC_abs="12.118506" PMx_abs="3.520228" NOx_abs="79.998082" fuel_abs="17.640460"/>
    </tripinfo>
    <tripinfo id="161230_161230_421" depart="25228.00" departLane="28557537#1_0" departPos="5.10" departSpeed="0.00" departDelay="0.00" arrival="25241.00" arrivalLane="28557537#1_0" arrivalPos="170.84" arrivalSpeed="24.35" duration="13.00" routeLength="165.74" waitSteps="0" rerouteNo="0" devices="tripinfo_161230_161230_421 hbefa_161230_161230_421" vType="DEFAULT_VEHTYPE" vaporized="">
        <emissions CO_abs="1460.874986" CO2_abs="89265.031461" HC_abs="29.897716" PMx_abs="11.467921" NOx_abs="197.662275" fuel_abs="35.588612"/>
    </tripinfo>
    <tripinfo id="130658_130658_409" depart="25218.00" departLane="23799644_0" departPos="5.10" departSpeed="0.00" departDelay="0.00" arrival="25243.00" arrivalLane="4400449#0_0" arrivalPos="32.06" arrivalSpeed="12.78" duration="25.00" routeLength="218.58" waitSteps="0" rerouteNo="0" devices="tripinfo_130658_130658_409 hbefa_130658_130658_409" vType="DEFAULT_VEHTYPE" vaporized="">
        <emissions CO_abs="753.758529" CO2_abs="61391.669931" HC_abs="19.162961" PMx_abs="6.814854" NOx_abs="126.141075" fuel_abs="24.475912"/>
    </tripinfo>
    <tripinfo id="113896_113896_402" depart="25203.00" departLane="4380937#0_0" departPos="5.10" departSpeed="0.00" departDelay="3.00" arrival="25244.00" arrivalLane="145575263_1" arrivalPos="260.32" arrivalSpeed="13.01" duration="41.00" routeLength="481.40" waitSteps="0" rerouteNo="0" devices="tripinfo_113896_113896_402 hbefa_113896_113896_402" vType="DEFAULT_VEHTYPE" vaporized="">
        <emissions CO_abs="851.043040" CO2_abs="85413.665962" HC_abs="23.803738" PMx_abs="8.462229" NOx_abs="169.906227" fuel_abs="34.053127"/>
    </tripinfo>
    <tripinfo id="147897_147897_416" depart="25223.00" departLane="23015529#0_0" departPos="5.10" departSpeed="0.00" departDelay="0.00" arrival="25244.00" arrivalLane="37866521#1_0" arrivalPos="52.00" arrivalSpeed="13.56" duration="21.00" routeLength="231.77" waitSteps="0" rerouteNo="0" devices="tripinfo_147897_147897_416 hbefa_147897_147897_416" vType="DEFAULT_VEHTYPE" vaporized="">
        <emissions CO_abs="561.926103" CO2_abs="53081.419074" HC_abs="15.297453" PMx_abs="5.399753" NOx_abs="106.440260" fuel_abs="21.162751"/>
    </tripinfo>
    <tripinfo id="148292_148292_417" depart="25200.00" departLane="69366484#0_0" departPos="5.10" departSpeed="0.00" departDelay="0.00" arrival="25245.00" arrivalLane="23493260#7_0" arrivalPos="59.96" arrivalSpeed="13.57" duration="45.00" routeLength="451.35" waitSteps="0" rerouteNo="0" devices="tripinfo_148292_148292_417 hbefa_148292_148292_417" vType="DEFAULT_VEHTYPE" vaporized="">
        <emissions CO_abs="1015.340211" CO2_abs="91501.000266" HC_abs="26.896048" PMx_abs="10.011288" NOx_abs="185.833283" fuel_abs="36.480046"/>
    </tripinfo>
    <tripinfo id="102085_102085_396" depart="25203.00" departLane="154743410#2_0" departPos="5.10" departSpeed="0.00" departDelay="3.00" arrival="25245.00" arrivalLane="9207798_1" arrivalPos="76.33" arrivalSpeed="17.31" duration="42.00" routeLength="167.61" waitSteps="16" rerouteNo="0" devices="tripinfo_102085_102085_396 hbefa_102085_102085_396" vType="DEFAULT_VEHTYPE" vaporized="">
        <emissions CO_abs="1216.470879" CO2_abs="81395.778863" HC_abs="27.367311" PMx_abs="10.125876" NOx_abs="175.092979" fuel_abs="32.451240"/>
    </tripinfo>
    <tripinfo id="147145_147145_416" depart="25200.00" departLane="154755073#4_0" departPos="5.10" departSpeed="0.00" departDelay="0.00" arrival="25246.00" arrivalLane="2837877_0" arrivalPos="210.13" arrivalSpeed="7.80" duration="46.00" routeLength="336.64" waitSteps="0" rerouteNo="0" devices="tripinfo_147145_147145_416 hbefa_147145_147145_416" vType="DEFAULT_VEHTYPE" vaporized="">
        <emissions CO_abs="308.817381" CO2_abs="48563.749559" HC_abs="13.294161" PMx_abs="3.767952" NOx_abs="87.521639" fuel_abs="19.361617"/>
    </tripinfo>
    <tripinfo id="114306_114306_402" depart="25200.00" departLane="36564599_0" departPos="5.10" departSpeed="0.00" departDelay="0.00" arrival="25247.00" arrivalLane="36564599_0" arrivalPos="101.75" arrivalSpeed="2.62" duration="47.00" routeLength="96.65" waitSteps="0" rerouteNo="0" devices="tripinfo_114306_114306_402 hbefa_114306_114306_402" vType="DEFAULT_VEHTYPE" vaporized="">
        <emissions CO_abs="195.843372" CO2_abs="28419.716844" HC_abs="10.913974" PMx_abs="1.580707" NOx_abs="45.444089" fuel_abs="11.330498"/>
    </tripinfo>
    <tripinfo id="103997_103997_397" depart="25200.00" departLane="145474195#0_0" departPos="5.10" departSpeed="0.00" departDelay="0.00" arrival="25249.00" arrivalLane="145575263_1" arrivalPos="260.32" arrivalSpeed="13.07" duration="49.00" routeLength="582.15" waitSteps="0" rerouteNo="0" devices="tripinfo_103997_103997_397 hbefa_103997_103997_397" vType="DEFAULT_VEHTYPE" vaporized="">
        <emissions CO_abs="934.243141" CO2_abs="95756.914271" HC_abs="26.491976" PMx_abs="9.295067" NOx_abs="189.635226" fuel_abs="38.176823"/>
    </tripinfo>
    <tripinfo id="145277_145277_416" depart="25203.00" departLane="145474195#0_0" departPos="5.10" departSpeed="0.00" departDelay="3.00" arrival="25253.00" arrivalLane="145575263_1" arrivalPos="260.32" arrivalSpeed="13.02" duration="50.00" routeLength="582.15" waitSteps="0" rerouteNo="0" devices="tripinfo_145277_145277_416 hbefa_145277_145277_416" vType="DEFAULT_VEHTYPE" vaporized="">
        <emissions CO_abs="1084.656367" CO2_abs="110174.102560" HC_abs="30.510329" PMx_abs="11.084392" NOx_abs="218.944657" fuel_abs="43.924736"/>
    </tripinfo>
    <tripinfo id="145302_145302_416" depart="25215.00" departLane="150031221_0" departPos="5.10" departSpeed="0.00" departDelay="0.00" arrival="25253.00" arrivalLane="150031221_0" arrivalPos="279.03" arrivalSpeed="7.74" duration="38.00" routeLength="273.93" waitSteps="0" rerouteNo="0" devices="tripinfo_145302_145302_416 hbefa_145302_145302_416" vType="DEFAULT_VEHTYPE" vaporized="">
        <emissions CO_abs="275.226746" CO2_abs="45252.439899" HC_abs="12.327474" PMx_abs="3.433396" NOx_abs="80.948805" fuel_abs="18.041449"/>
    </tripinfo>
    <tripinfo id="108143_108143_400" depart="25221.00" departLane="23799644_0" departPos="5.10" departSpeed="0.00" departDelay="0.00" arrival="25253.00" arrivalLane="64487982#4_0" arrivalPos="68.97" arrivalSpeed="7.58" duration="32.00" routeLength="255.49" waitSteps="0" rerouteNo="0" devices="tripinfo_108143_108143_400 hbefa_108143_108143_400" vType="DEFAULT_VEHTYPE" vaporized="">
        <emissions CO_abs="585.726415" CO2_abs="58741.154116" HC_abs="17.336590" PMx_abs="5.673160" NOx_abs="115.013549" fuel_abs="23.419193"/>
    </tripinfo>
    <tripinfo id="136568_136568_411" depart="25232.00" departLane="8225144#1_0" departPos="5.10" departSpeed="0.00" departDelay="0.00" arrival="25253.00" arrivalLane="23015778_0" arrivalPos="93.11" arrivalSpeed="13.34" duration="21.00" routeLength="223.78" waitSteps="0" rerouteNo="0" devices="tripinfo_136568_136568_411 hbefa_136568_136568_411" vType="DEFAULT_VEHTYPE" vaporized="">
        <emissions CO_abs="548.302463" CO2_abs="50126.120565" HC_abs="14.622820" PMx_abs="5.276432" NOx_abs="101.281943" fuel_abs="19.984518"/>
    </tripinfo>
    <tripinfo id="128669_128669_408" depart="25201.00" departLane="151057637#2_0" departPos="5.10" departSpeed="0.00" departDelay="0.00" arrival="25254.00" arrivalLane="23471158#9_0" arrivalPos="213.75" arrivalSpeed="27.43" duration="53.00" routeLength="917.61" waitSteps="0" rerouteNo="0" devices="tripinfo_128669_128669_408 hbefa_128669_128669_408" vType="DEFAULT_VEHTYPE" vaporized="">
        <emissions CO_abs="4423.182684" CO2_abs="271646.413275" HC_abs="88.587937" PMx_abs="33.456815" NOx_abs="599.379962" fuel_abs="108.301378"/>
    </tripinfo>
    <tripinfo id="119400_119400_405" depart="25212.00" departLane="154743410#1_0" departPos="5.10" departSpeed="0.00" departDelay="12.00" arrival="25256.00" arrivalLane="187965761#0_0" arrivalPos="97.49" arrivalSpeed="7.89" duration="44.00" routeLength="355.85" waitSteps="0" rerouteNo="0" devices="tripinfo_119400_119400_405 hbefa_119400_119400_405" vType="DEFAULT_VEHTYPE" vaporized="">
        <emissions CO_abs="867.150101" CO2_abs="81599.123075" HC_abs="24.383162" PMx_abs="8.407213" NOx_abs="162.144963" fuel_abs="32.532313"/>
    </tripinfo>
    <tripinfo id="143430_143430_415" depart="25205.00" departLane="151057637#2_0" departPos="5.10" departSpeed="0.00" departDelay="0.00" arrival="25256.00" arrivalLane="23471158#9_0" arrivalPos="213.75" arrivalSpeed="27.34" duration="51.00" routeLength="917.61" waitSteps="0" rerouteNo="0" devices="tripinfo_143430_143430_415 hbefa_143430_143430_415" vType="DEFAULT_VEHTYPE" vaporized="">
        <emissions CO_abs="4820.300355" CO2_abs="287905.279756" HC_abs="94.432230" PMx_abs="36.212181" NOx_abs="640.379779" fuel_abs="114.783570"/>
    </tripinfo>
    <tripinfo id="155268_155268_420" depart="25200.00" departLane="150039002#2_0" departPos="5.10" departSpeed="0.00" departDelay="0.00" arrival="25258.00" arrivalLane="36590979#4_0" arrivalPos="41.97" arrivalSpeed="22.16" duration="58.00" routeLength="538.03" waitSteps="14" rerouteNo="0" devices="tripinfo_155268_155268_420 hbefa_155268_155268_420" vType="DEFAULT_VEHTYPE" vaporized="">
        <emissions CO_abs="1773.700329" CO2_abs="136178.770068" HC_abs="41.494652" PMx_abs="15.159076" NOx_abs="284.967908" fuel_abs="54.292416"/>
    </tripinfo>
    <tripinfo id="115398_115398_403" depart="25212.00" departLane="185767958#1_0" departPos="5.10" departSpeed="0.00" departDelay="12.00" arrival="25259.00" arrivalLane="23471158#9_0" arrivalPos="213.75" arrivalSpeed="27.63" duration="47.00" routeLength="795.05" waitSteps="0" rerouteNo="0" devices="tripinfo_115398_115398_403 hbefa_115398_115398_403" vType="DEFAULT_VEHTYPE" vaporized="">
        <emissions CO_abs="4684.882851" CO2_abs="275159.137416" HC_abs="91.650486" PMx_abs="35.192035" NOx_abs="614.849383" fuel_abs="109.701845"/>
    </tripinfo>
    <tripinfo id="141739_141739_415" depart="25200.00" departLane="23471151#1_0" departPos="5.10" departSpeed="0.00" departDelay="0.00" arrival="25259.00" arrivalLane="8225102_0" arrivalPos="87.82" arrivalSpeed="7.35" duration="59.00" routeLength="732.25" waitSteps="0" rerouteNo="0" devices="tripinfo_141739_141739_415 hbefa_141739_141739_415" vType="DEFAULT_VEHTYPE" vaporized="">
        <emissions CO_abs="2351.656651" CO2_abs="172340.833685" HC_abs="53.197087" PMx_abs="19.598803" NOx_abs="364.358592" fuel_abs="68.709689"/>
    </tripinfo>
    <tripinfo id="149028_149028_417" depart="25233.00" departLane="-200671461_0" departPos="5.10" departSpeed="0.00" departDelay="0.00" arrival="25259.00" arrivalLane="-22873531#1_0" arrivalPos="92.66" arrivalSpeed="12.84" duration="26.00" routeLength="244.92" waitSteps="0" rerouteNo="0" devices="tripinfo_149028_149028_417 hbefa_149028_149028_417" vType="DEFAULT_VEHTYPE" vaporized="">
        <emissions CO_abs="1181.179748" CO2_abs="83968.929636" HC_abs="27.075232" PMx_abs="10.304733" NOx_abs="179.262405" fuel_abs="33.477116"/>
    </tripinfo>
    <tripinfo id="109590_109590_401" depart="25202.00" departLane="150031205#1_0" departPos="5.10" departSpeed="0.00" departDelay="2.00" arrival="25262.00" arrivalLane="145575263_1" arrivalPos="260.32" arrivalSpeed="12.92" duration="60.00" routeLength="678.67" waitSteps="0" rerouteNo="0" devices="tripinfo_109590_109590_401 hbefa_109590_109590_401" vType="DEFAULT_VEHTYPE" vaporized="">
        <emissions CO_abs="1418.783397" CO2_abs="135475.488183" HC_abs="38.548420" PMx_abs="13.848027" NOx_abs="271.986873" fuel_abs="54.012008"/>
    </tripinfo>
    <tripinfo id="116049_116049_403" depart="25205.00" departLane="150031205#1_0" departPos="5.10" departSpeed="0.00" departDelay="5.00" arrival="25264.00" arrivalLane="145575263_1" arrivalPos="260.32" arrivalSpeed="13.20" duration="59.00" routeLength="678.67" waitSteps="0" rerouteNo="0" devices="tripinfo_116049_116049_403 hbefa_116049_116049_403" vType="DEFAULT_VEHTYPE" vaporized="">
        <emissions CO_abs="1344.016903" CO2_abs="120835.509145" HC_abs="35.092399" PMx_abs="12.643648" NOx_abs="245.207428" fuel_abs="48.175270"/>
    </tripinfo>
    <tripinfo id="174347_174347_427" depart="25256.00" departLane="23015778_0" departPos="5.10" departSpeed="0.00" departDelay="0.00" arrival="25266.00" arrivalLane="23015778_0" arrivalPos="93.11" arrivalSpeed="13.26" duration="10.00" routeLength="88.01" waitSteps="0" rerouteNo="0" devices="tripinfo_174347_174347_427 hbefa_174347_174347_427" vType="DEFAULT_VEHTYPE" vaporized="">
        <emissions CO_abs="532.314112" CO2_abs="36405.343289" HC_abs="12.001500" PMx_abs="4.634115" NOx_abs="78.421377" fuel_abs="14.514248"/>
    </tripinfo>
    <tripinfo id="171381_171381_426" depart="25203.00" departLane="8096211#0_0" departPos="5.10" departSpeed="0.00" departDelay="3.00" arrival="25267.00" arrivalLane="145261451_1" arrivalPos="86.92" arrivalSpeed="13.06" duration="64.00" routeLength="471.91" waitSteps="17" rerouteNo="0" devices="tripinfo_171381_171381_426 hbefa_171381_171381_426" vType="DEFAULT_VEHTYPE" vaporized="">
        <emissions CO_abs="1933.235229" CO2_abs="139465.999758" HC_abs="44.497047" PMx_abs="16.480880" NOx_abs="295.846352" fuel_abs="55.602954"/>
    </tripinfo>
    <tripinfo id="150894_150894_418" depart="25239.00" departLane="-175607927#0_0" departPos="5.10" departSpeed="0.00" departDelay="0.00" arrival="25267.00" arrivalLane="4400305_1" arrivalPos="163.40" arrivalSpeed="13.44" duration="28.00" routeLength="301.08" waitSteps="0" rerouteNo="0" devices="tripinfo_150894_150894_418 hbefa_150894_150894_418" vType="DEFAULT_VEHTYPE" vaporized="">
        <emissions CO_abs="842.263420" CO2_abs="75132.997163" HC_abs="21.989906" PMx_abs="8.078773" NOx_abs="152.866237" fuel_abs="29.954376"/>
    </tripinfo>
    <tripinfo id="140838_140838_414" depart="25200.00" departLane="165511531#1_0" departPos="5.10" departSpeed="0.00" departDelay="0.00" arrival="25269.00" arrivalLane="23493260#7_0" arrivalPos="59.96" arrivalSpeed="12.76" duration="69.00" routeLength="689.80" waitSteps="0" rerouteNo="0" devices="tripinfo_140838_140838_414 hbefa_140838_140838_414" vType="DEFAULT_VEHTYPE" vaporized="">
        <emissions CO_abs="1450.111540" CO2_abs="129820.778925" HC_abs="38.399421" PMx_abs="13.790326" NOx_abs="262.989698" fuel_abs="51.757552"/>
    </tripinfo>
    <tripinfo id="128656_128656_408" depart="25202.00" departLane="36454807#3-AddedOnRampEdge_0" departPos="5.10" departSpeed="0.00" departDelay="2.00" arrival="25270.00" arrivalLane="129833339#1_0" arrivalPos="41.68" arrivalSpeed="12.78" duration="68.00" routeLength="728.25" waitSteps="3" rerouteNo="0" devices="tripinfo_128656_128656_408 hbefa_128656_128656_408" vType="DEFAULT_VEHTYPE" vaporized="">
        <emissions CO_abs="3092.617690" CO2_abs="209430.867937" HC_abs="67.727240" PMx_abs="25.400104" NOx_abs="450.843795" fuel_abs="83.496905"/>
    </tripinfo>
    <tripinfo id="150644_150644_418" depart="25232.00" departLane="-69366482#2_0" departPos="5.10" departSpeed="0.00" departDelay="0.00" arrival="25270.00" arrivalLane="37866521#1_0" arrivalPos="52.00" arrivalSpeed="13.08" duration="38.00" routeLength="401.29" waitSteps="0" rerouteNo="0" devices="tripinfo_150644_150644_418 hbefa_150644_150644_418" vType="DEFAULT_VEHTYPE" vaporized="">
        <emissions CO_abs="651.871302" CO2_abs="69361.046548" HC_abs="19.376810" PMx_abs="6.705861" NOx_abs="135.989577" fuel_abs="27.653189"/>
    </tripinfo>
    <tripinfo id="128373_128373_408" depart="25239.00" departLane="22873499#0_0" departPos="5.10" departSpeed="0.00" departDelay="0.00" arrival="25271.00" arrivalLane="-22873540#5_0" arrivalPos="187.63" arrivalSpeed="13.61" duration="32.00" routeLength="370.16" waitSteps="0" rerouteNo="0" devices="tripinfo_128373_128373_408 hbefa_128373_128373_408" vType="DEFAULT_VEHTYPE" vaporized="">
        <emissions CO_abs="932.084832" CO2_abs="86578.301351" HC_abs="24.759033" PMx_abs="9.028978" NOx_abs="174.928797" fuel_abs="34.517448"/>
    </tripinfo>
    <tripinfo id="142640_142640_415" depart="25200.00" departLane="8096212#1_0" departPos="5.10" departSpeed="0.00" departDelay="0.00" arrival="25272.00" arrivalLane="23493260#7_0" arrivalPos="59.96" arrivalSpeed="12.75" duration="72.00" routeLength="713.59" waitSteps="0" rerouteNo="0" devices="tripinfo_142640_142640_415 hbefa_142640_142640_415" vType="DEFAULT_VEHTYPE" vaporized="">
        <emissions CO_abs="1304.319521" CO2_abs="131258.260235" HC_abs="37.555798" PMx_abs="12.698377" NOx_abs="258.811258" fuel_abs="52.330655"/>
    </tripinfo>
    <tripinfo id="147629_147629_416" depart="25235.00" departLane="31694310#0_0" departPos="5.10" departSpeed="0.00" departDelay="6.00" arrival="25272.00" arrivalLane="-150031186_0" arrivalPos="162.24" arrivalSpeed="13.07" duration="37.00" routeLength="438.54" waitSteps="0" rerouteNo="0" devices="tripinfo_147629_147629_416 hbefa_147629_147629_416" vType="DEFAULT_VEHTYPE" vaporized="">
        <emissions CO_abs="1747.494050" CO2_abs="122385.084459" HC_abs="38.973634" PMx_abs="14.716988" NOx_abs="262.335233" fuel_abs="48.793060"/>
    </tripinfo>
    <tripinfo id="157577_157577_421" depart="25203.00" departLane="-165515969#3_0" departPos="5.10" departSpeed="0.00" departDelay="3.00" arrival="25272.00" arrivalLane="37866521#1_0" arrivalPos="52.00" arrivalSpeed="13.36" duration="69.00" routeLength="837.58" waitSteps="0" rerouteNo="0" devices="tripinfo_157577_157577_421 hbefa_157577_157577_421" vType="DEFAULT_VEHTYPE" vaporized="">
        <emissions CO_abs="2809.836974" CO2_abs="206267.360989" HC_abs="63.728150" PMx_abs="24.063971" NOx_abs="437.392838" fuel_abs="82.235671"/>
    </tripinfo>
    <tripinfo id="133563_133563_410" depart="25250.00" departLane="4400448_0" departPos="5.10" departSpeed="0.00" departDelay="0.00" arrival="25277.00" arrivalLane="4400448_0" arrivalPos="197.56" arrivalSpeed="7.62" duration="27.00" routeLength="192.46" waitSteps="0" rerouteNo="0" devices="tripinfo_133563_133563_410 hbefa_133563_133563_410" vType="DEFAULT_VEHTYPE" vaporized="">
        <emissions CO_abs="209.694472" CO2_abs="37248.896155" HC_abs="10.069985" PMx_abs="2.781097" NOx_abs="65.947963" fuel_abs="14.850560"/>
    </tripinfo>