<?xml version="1.0" encoding="UTF-8"?>

<!-- generated on Tue Feb 18 13:33:20 2014 by SUMO sumo Version 0.19.0
<?xml version="1.0" encoding="UTF-8"?>

<configuration xmlns:xsi="http://www.w3.org/2001/XMLSchema-instance" xsi:noNamespaceSchemaLocation="http://sumo-sim.org/xsd/sumoConfiguration.xsd">

    <input>
        <net-file value="data/map.net.xml"/>
        <route-files value="data/map.rou.xml"/>
    </input>

    <output>
        <tripinfo-output value="data/maptripinfoLocal.out.xml"/>
        <save-state.prefix value="data/state"/>
    </output>

    <time>
        <begin value="25200"/>
        <end value="26100"/>
    </time>

    <processing>
        <route-steps value="200"/>
        <scale value="0.1"/>
        <time-to-teleport value="300"/>
        <lanechange.allow-swap value="true"/>
    </processing>

    <report>
        <verbose value="true"/>
        <no-warnings value="false"/>
        <no-step-log value="true"/>
    </report>

    <emissions>
        <device.hbefa.probability value="1"/>
    </emissions>

    <traci_server>
        <remote-port value="8814"/>
    </traci_server>

</configuration>
-->

<tripinfos>
    <tripinfo id="160035_160035_421" depart="25200.00" departLane="8225127_0" departPos="5.10" departSpeed="0.00" departDelay="0.00" arrival="25206.00" arrivalLane="8225127_0" arrivalPos="38.87" arrivalSpeed="12.16" duration="6.00" routeLength="33.77" waitSteps="0" rerouteNo="1" devices="tripinfo_160035_160035_421 hbefa_160035_160035_421" vType="DEFAULT_VEHTYPE" vaporized="">
        <emissions CO_abs="387.264355" CO2_abs="25507.011574" HC_abs="8.741027" PMx_abs="3.269549" NOx_abs="55.046833" fuel_abs="10.169250"/>
    </tripinfo>
    <tripinfo id="146065_146065_416" depart="25200.00" departLane="185767959#0_0" departPos="5.10" departSpeed="0.00" departDelay="0.00" arrival="25211.00" arrivalLane="9207798_1" arrivalPos="76.33" arrivalSpeed="16.60" duration="11.00" routeLength="90.29" waitSteps="0" rerouteNo="2" devices="tripinfo_146065_146065_416 hbefa_146065_146065_416" vType="DEFAULT_VEHTYPE" vaporized="">
        <emissions CO_abs="635.151201" CO2_abs="45100.905828" HC_abs="14.673032" PMx_abs="5.291222" NOx_abs="95.593481" fuel_abs="17.981037"/>
    </tripinfo>
    <tripinfo id="135816_135816_411" depart="25200.00" departLane="23471158#6_0" departPos="5.10" departSpeed="0.00" departDelay="0.00" arrival="25218.00" arrivalLane="23471158#9_0" arrivalPos="213.75" arrivalSpeed="27.57" duration="18.00" routeLength="308.43" waitSteps="0" rerouteNo="1" devices="tripinfo_135816_135816_411 hbefa_135816_135816_411" vType="DEFAULT_VEHTYPE" vaporized="">
        <emissions CO_abs="2257.601965" CO2_abs="130852.761484" HC_abs="43.851883" PMx_abs="16.677606" NOx_abs="292.857418" fuel_abs="52.169051"/>
    </tripinfo>
    <tripinfo id="100948_100948_396" depart="25200.00" departLane="154743410#2_0" departPos="5.10" departSpeed="0.00" departDelay="0.00" arrival="25221.00" arrivalLane="9207798_1" arrivalPos="76.33" arrivalSpeed="16.98" duration="21.00" routeLength="167.61" waitSteps="0" rerouteNo="2" devices="tripinfo_100948_100948_396 hbefa_100948_100948_396" vType="DEFAULT_VEHTYPE" vaporized="">
        <emissions CO_abs="1157.419098" CO2_abs="77298.784482" HC_abs="25.759823" PMx_abs="9.694834" NOx_abs="166.904955" fuel_abs="30.817833"/>
    </tripinfo>
    <tripinfo id="95769_95769_394" depart="25200.00" departLane="154743410#1_0" departPos="5.10" departSpeed="0.00" departDelay="0.00" arrival="25231.00" arrivalLane="9207798_1" arrivalPos="76.33" arrivalSpeed="18.36" duration="31.00" routeLength="167.61" waitSteps="0" rerouteNo="2" devices="tripinfo_95769_95769_394 hbefa_95769_95769_394" vType="DEFAULT_VEHTYPE" vaporized="">
        <emissions CO_abs="1849.154285" CO2_abs="120240.282533" HC_abs="39.717114" PMx_abs="15.552675" NOx_abs="262.854852" fuel_abs="47.937958"/>
    </tripinfo>
    <tripinfo id="80988_80988_388" depart="25207.00" departLane="154743410#2_0" departPos="5.10" departSpeed="0.00" departDelay="7.00" arrival="25234.00" arrivalLane="9207798_1" arrivalPos="76.33" arrivalSpeed="19.52" duration="27.00" routeLength="167.61" waitSteps="1" rerouteNo="2" devices="tripinfo_80988_80988_388 hbefa_80988_80988_388" vType="DEFAULT_VEHTYPE" vaporized="">
        <emissions CO_abs="1411.814438" CO2_abs="91554.115201" HC_abs="31.235442" PMx_abs="11.672920" NOx_abs="198.459580" fuel_abs="36.501213"/>
    </tripinfo>
    <tripinfo id="113896_113896_402" depart="25200.00" departLane="4380937#0_0" departPos="5.10" departSpeed="0.00" departDelay="0.00" arrival="25243.00" arrivalLane="145575263_1" arrivalPos="260.32" arrivalSpeed="13.22" duration="43.00" routeLength="357.91" waitSteps="0" rerouteNo="2" devices="tripinfo_113896_113896_402 hbefa_113896_113896_402" vType="DEFAULT_VEHTYPE" vaporized="">
        <emissions CO_abs="1036.819613" CO2_abs="97838.920066" HC_abs="27.954849" PMx_abs="10.180252" NOx_abs="196.978851" fuel_abs="39.006884"/>
    </tripinfo>
    <tripinfo id="149028_149028_417" depart="25233.00" departLane="-200671461_0" departPos="5.10" departSpeed="0.00" departDelay="0.00" arrival="25259.00" arrivalLane="-22873531#1_0" arrivalPos="92.66" arrivalSpeed="13.33" duration="26.00" routeLength="244.92" waitSteps="0" rerouteNo="1" devices="tripinfo_149028_149028_417 hbefa_149028_149028_417" vType="DEFAULT_VEHTYPE" vaporized="">
        <emissions CO_abs="1082.361432" CO2_abs="75044.133752" HC_abs="24.534596" PMx_abs="9.371871" NOx_abs="161.075369" fuel_abs="29.918937"/>
    </tripinfo>
    <tripinfo id="128656_128656_408" depart="25200.00" departLane="36454807#3-AddedOnRampEdge_0" departPos="5.10" departSpeed="0.00" departDelay="0.00" arrival="25260.00" arrivalLane="129833339#1_1" arrivalPos="41.68" arrivalSpeed="13.72" duration="60.00" routeLength="556.38" waitSteps="0" rerouteNo="3" devices="tripinfo_128656_128656_408 hbefa_128656_128656_408" vType="DEFAULT_VEHTYPE" vaporized="">
        <emissions CO_abs="2348.385597" CO2_abs="176622.537503" HC_abs="54.796599" PMx_abs="20.683645" NOx_abs="372.730874" fuel_abs="70.416702"/>
    </tripinfo>
    <tripinfo id="125000_125000_406" depart="25206.00" departLane="185767958#1_0" departPos="5.10" departSpeed="0.00" departDelay="6.00" arrival="25277.00" arrivalLane="23471158#9_0" arrivalPos="213.75" arrivalSpeed="26.77" duration="71.00" routeLength="806.52" waitSteps="0" rerouteNo="1" devices="tripinfo_125000_125000_406 hbefa_125000_125000_406" vType="DEFAULT_VEHTYPE" vaporized="">
        <emissions CO_abs="4038.787514" CO2_abs="258877.564048" HC_abs="84.833258" PMx_abs="32.546424" NOx_abs="566.090981" fuel_abs="103.210564"/>
    </tripinfo>
    <tripinfo id="146668_146668_416" depart="25210.00" departLane="31694310#0_0" departPos="5.10" departSpeed="0.00" departDelay="0.00" arrival="25321.00" arrivalLane="37866521#1_0" arrivalPos="52.00" arrivalSpeed="13.53" duration="111.00" routeLength="837.58" waitSteps="0" rerouteNo="2" devices="tripinfo_146668_146668_416 hbefa_146668_146668_416" vType="DEFAULT_VEHTYPE" vaporized="">
        <emissions CO_abs="4061.296441" CO2_abs="305348.305444" HC_abs="93.517735" PMx_abs="35.232362" NOx_abs="644.121042" fuel_abs="121.737735"/>
    </tripinfo>
    <tripinfo id="147926_147926_416" depart="25262.00" departLane="31694310#0_0" departPos="5.10" departSpeed="0.00" departDelay="0.00" arrival="25327.00" arrivalLane="154755102#0_0" arrivalPos="142.19" arrivalSpeed="13.58" duration="65.00" routeLength="746.39" waitSteps="0" rerouteNo="1" devices="tripinfo_147926_147926_416 hbefa_147926_147926_416" vType="DEFAULT_VEHTYPE" vaporized="">
        <emissions CO_abs="1603.005694" CO2_abs="148480.817113" HC_abs="42.435927" PMx_abs="15.590505" NOx_abs="300.493141" fuel_abs="59.197036"/>
    </tripinfo>
    <tripinfo id="148790_148790_417" depart="25291.00" departLane="4400203#0_0" departPos="5.10" departSpeed="0.00" departDelay="0.00" arrival="25333.00" arrivalLane="9207798_1" arrivalPos="76.33" arrivalSpeed="19.87" duration="42.00" routeLength="167.61" waitSteps="0" rerouteNo="3" devices="tripinfo_148790_148790_417 hbefa_148790_148790_417" vType="DEFAULT_VEHTYPE" vaporized="">
        <emissions CO_abs="2745.628631" CO2_abs="175901.879747" HC_abs="58.213905" PMx_abs="22.671743" NOx_abs="385.685767" fuel_abs="70.129387"/>
    </tripinfo>
    <tripinfo id="150882_150882_418" depart="25226.00" departLane="31694310#0_0" departPos="5.10" departSpeed="0.00" departDelay="0.00" arrival="25339.00" arrivalLane="37866521#1_0" arrivalPos="52.00" arrivalSpeed="13.23" duration="113.00" routeLength="837.58" waitSteps="0" rerouteNo="2" devices="tripinfo_150882_150882_418 hbefa_150882_150882_418" vType="DEFAULT_VEHTYPE" vaporized="">
        <emissions CO_abs="3820.578918" CO2_abs="296518.380000" HC_abs="89.986901" PMx_abs="33.391861" NOx_abs="620.384106" fuel_abs="118.217374"/>
    </tripinfo>
    <tripinfo id="128669_128669_408" depart="25201.00" departLane="151057637#2_0" departPos="5.10" departSpeed="0.00" departDelay="0.00" arrival="25348.00" arrivalLane="23471158#9_0" arrivalPos="213.75" arrivalSpeed="26.90" duration="147.00" routeLength="316.97" waitSteps="0" rerouteNo="4" devices="tripinfo_128669_128669_408 hbefa_128669_128669_408" vType="DEFAULT_VEHTYPE" vaporized="">
        <emissions CO_abs="4978.775236" CO2_abs="385383.463531" HC_abs="118.290145" PMx_abs="43.767715" NOx_abs="805.064473" fuel_abs="153.646517"/>
    </tripinfo>
    <tripinfo id="134405_134405_411" depart="25256.00" departLane="151057637#2_0" departPos="5.10" departSpeed="0.00" departDelay="0.00" arrival="25352.00" arrivalLane="2837877_0" arrivalPos="210.13" arrivalSpeed="8.21" duration="96.00" routeLength="842.70" waitSteps="3" rerouteNo="2" devices="tripinfo_134405_134405_411 hbefa_134405_134405_411" vType="DEFAULT_VEHTYPE" vaporized="">
        <emissions CO_abs="2829.748085" CO2_abs="220702.227299" HC_abs="68.907244" PMx_abs="24.910314" NOx_abs="457.941295" fuel_abs="87.990607"/>
    </tripinfo>
    <tripinfo id="139768_139768_413" depart="25218.00" departLane="28557537#1_0" departPos="5.10" departSpeed="0.00" departDelay="0.00" arrival="25356.00" arrivalLane="145575263_1" arrivalPos="260.32" arrivalSpeed="12.71" duration="138.00" routeLength="357.91" waitSteps="30" rerouteNo="2" devices="tripinfo_139768_139768_413 hbefa_139768_139768_413" vType="DEFAULT_VEHTYPE" vaporized="">
        <emissions CO_abs="2939.206256" CO2_abs="251176.792643" HC_abs="79.622536" PMx_abs="26.232783" NOx_abs="504.380011" fuel_abs="100.140340"/>
    </tripinfo>
    <tripinfo id="162274_162274_421" depart="25273.00" departLane="151057637#2_0" departPos="5.10" departSpeed="0.00" departDelay="0.00" arrival="25356.00" arrivalLane="23471158#9_0" arrivalPos="213.75" arrivalSpeed="26.73" duration="83.00" routeLength="929.08" waitSteps="0" rerouteNo="2" devices="tripinfo_162274_162274_421 hbefa_162274_162274_421" vType="DEFAULT_VEHTYPE" vaporized="">
        <emissions CO_abs="4517.757999" CO2_abs="289763.546705" HC_abs="95.649147" PMx_abs="36.257193" NOx_abs="632.294280" fuel_abs="115.524325"/>
    </tripinfo>
    <tripinfo id="131294_131294_410" depart="25267.00" departLane="151057637#2_0" departPos="5.10" departSpeed="0.00" departDelay="0.00" arrival="25357.00" arrivalLane="2837877_0" arrivalPos="210.13" arrivalSpeed="7.93" duration="90.00" routeLength="842.70" waitSteps="0" rerouteNo="2" devices="tripinfo_131294_131294_410 hbefa_131294_131294_410" vType="DEFAULT_VEHTYPE" vaporized="">
        <emissions CO_abs="2564.635173" CO2_abs="196788.521248" HC_abs="61.539625" PMx_abs="22.354970" NOx_abs="410.227115" fuel_abs="78.456577"/>
    </tripinfo>
    <tripinfo id="105374_105374_398" depart="25200.00" departLane="185767958#1_0" departPos="5.10" departSpeed="0.00" departDelay="0.00" arrival="25359.00" arrivalLane="4390557#1_0" arrivalPos="163.47" arrivalSpeed="7.91" duration="159.00" routeLength="566.11" waitSteps="28" rerouteNo="4" devices="tripinfo_105374_105374_398 hbefa_105374_105374_398" vType="DEFAULT_VEHTYPE" vaporized="">
        <emissions CO_abs="4627.542213" CO2_abs="339635.679206" HC_abs="110.792596" PMx_abs="38.296846" NOx_abs="707.298918" fuel_abs="135.407587"/>
    </tripinfo>
    <tripinfo id="137304_137304_412" depart="25343.00" departLane="4400448_0" departPos="5.10" departSpeed="0.00" departDelay="0.00" arrival="25371.00" arrivalLane="4400448_0" arrivalPos="197.56" arrivalSpeed="7.29" duration="28.00" routeLength="192.46" waitSteps="0" rerouteNo="1" devices="tripinfo_137304_137304_412 hbefa_137304_137304_412" vType="DEFAULT_VEHTYPE" vaporized="">
        <emissions CO_abs="246.611592" CO2_abs="34196.576207" HC_abs="9.770871" PMx_abs="2.737780" NOx_abs="62.414788" fuel_abs="13.633646"/>
    </tripinfo>
    <tripinfo id="160988_160988_421" depart="25329.00" departLane="210039165#1_0" departPos="5.10" departSpeed="0.00" departDelay="0.00" arrival="25379.00" arrivalLane="200671461_0" arrivalPos="64.70" arrivalSpeed="13.63" duration="50.00" routeLength="388.50" waitSteps="0" rerouteNo="1" devices="tripinfo_160988_160988_421 hbefa_160988_160988_421" vType="DEFAULT_VEHTYPE" vaporized="">
        <emissions CO_abs="693.458382" CO2_abs="76475.987203" HC_abs="21.976172" PMx_abs="7.214712" NOx_abs="147.495874" fuel_abs="30.489797"/>
    </tripinfo>
    <tripinfo id="132570_132570_410" depart="25222.00" departLane="151057637#2_0" departPos="5.10" departSpeed="0.00" departDelay="0.00" arrival="25382.00" arrivalLane="-144935692#1_0" arrivalPos="107.95" arrivalSpeed="13.31" duration="160.00" routeLength="1150.07" waitSteps="33" rerouteNo="2" devices="tripinfo_132570_132570_410 hbefa_132570_132570_410" vType="DEFAULT_VEHTYPE" vaporized="">
        <emissions CO_abs="4223.829208" CO2_abs="323195.506179" HC_abs="106.053479" PMx_abs="35.995496" NOx_abs="664.519626" fuel_abs="128.853104"/>
    </tripinfo>
    <tripinfo id="117439_117439_404" depart="25203.00" departLane="185767958#1_0" departPos="5.10" departSpeed="0.00" departDelay="3.00" arrival="25385.00" arrivalLane="51534019#0_0" arrivalPos="140.71" arrivalSpeed="13.79" duration="182.00" routeLength="541.27" waitSteps="0" rerouteNo="2" devices="tripinfo_117439_117439_404 hbefa_117439_117439_404" vType="DEFAULT_VEHTYPE" vaporized="">
        <emissions CO_abs="4488.281351" CO2_abs="390178.554211" HC_abs="115.074292" PMx_abs="41.488612" NOx_abs="795.130014" fuel_abs="155.558236"/>
    </tripinfo>
    <tripinfo id="141886_141886_415" depart="25304.00" departLane="154755085#0_0" departPos="5.10" departSpeed="0.00" departDelay="0.00" arrival="25390.00" arrivalLane="122989592#2_1" arrivalPos="74.34" arrivalSpeed="8.13" duration="86.00" routeLength="658.65" waitSteps="0" rerouteNo="1" devices="tripinfo_141886_141886_415 hbefa_141886_141886_415" vType="DEFAULT_VEHTYPE" vaporized="">
        <emissions CO_abs="806.697609" CO2_abs="107243.107529" HC_abs="29.834740" PMx_abs="9.091060" NOx_abs="199.371011" fuel_abs="42.756172"/>
    </tripinfo>
    <tripinfo id="142023_142023_415" depart="25377.00" departLane="-175607927#0_0" departPos="5.10" departSpeed="0.00" departDelay="0.00" arrival="25390.00" arrivalLane="-175607927#0_0" arrivalPos="142.78" arrivalSpeed="13.62" duration="13.00" routeLength="137.68" waitSteps="0" rerouteNo="1" devices="tripinfo_142023_142023_415 hbefa_142023_142023_415" vType="DEFAULT_VEHTYPE" vaporized="">
        <emissions CO_abs="559.977205" CO2_abs="42172.845887" HC_abs="13.237843" PMx_abs="5.079549" NOx_abs="88.991241" fuel_abs="16.813666"/>
    </tripinfo>
    <tripinfo id="167411_167411_425" depart="25241.00" departLane="9207800#0_0" departPos="5.10" departSpeed="0.00" departDelay="0.00" arrival="25403.00" arrivalLane="23493260#7_1" arrivalPos="59.96" arrivalSpeed="12.84" duration="162.00" routeLength="1556.38" waitSteps="0" rerouteNo="3" devices="tripinfo_167411_167411_425 hbefa_167411_167411_425" vType="DEFAULT_VEHTYPE" vaporized="">
        <emissions CO_abs="3243.525879" CO2_abs="309064.103753" HC_abs="89.017773" PMx_abs="31.694944" NOx_abs="618.708326" fuel_abs="123.219124"/>
    </tripinfo>
    <tripinfo id="147136_147136_416" depart="25287.00" departLane="165515969#0_0" departPos="5.10" departSpeed="0.00" departDelay="2.00" arrival="25419.00" arrivalLane="166234884_0" arrivalPos="109.97" arrivalSpeed="7.36" duration="132.00" routeLength="951.91" waitSteps="39" rerouteNo="1" devices="tripinfo_147136_147136_416 hbefa_147136_147136_416" vType="DEFAULT_VEHTYPE" vaporized="">
        <emissions CO_abs="3665.076394" CO2_abs="271123.995110" HC_abs="91.468634" PMx_abs="29.819762" NOx_abs="558.135243" fuel_abs="108.092993"/>
    </tripinfo>
    <tripinfo id="152254_152254_419" depart="25394.00" departLane="-175607927#0_0" departPos="5.10" departSpeed="0.00" departDelay="0.00" arrival="25423.00" arrivalLane="4400305_1" arrivalPos="163.40" arrivalSpeed="13.36" duration="29.00" routeLength="301.08" waitSteps="0" rerouteNo="1" devices="tripinfo_152254_152254_419 hbefa_152254_152254_419" vType="DEFAULT_VEHTYPE" vaporized="">
        <emissions CO_abs="836.529117" CO2_abs="74913.666522" HC_abs="22.005001" PMx_abs="7.879871" NOx_abs="151.878009" fuel_abs="29.866931"/>
    </tripinfo>
    <tripinfo id="156975_156975_421" depart="25315.00" departLane="151057637#2_0" departPos="5.10" departSpeed="0.00" departDelay="0.00" arrival="25423.00" arrivalLane="23471158#9_0" arrivalPos="213.75" arrivalSpeed="27.19" duration="108.00" routeLength="929.08" waitSteps="19" rerouteNo="2" devices="tripinfo_156975_156975_421 hbefa_156975_156975_421" vType="DEFAULT_VEHTYPE" vaporized="">
        <emissions CO_abs="5110.501635" CO2_abs="329810.082967" HC_abs="110.996902" PMx_abs="40.650973" NOx_abs="713.349157" fuel_abs="131.490279"/>
    </tripinfo>
    <tripinfo id="159074_159074_421" depart="25296.00" departLane="31694310#0_0" departPos="5.10" departSpeed="0.00" departDelay="0.00" arrival="25424.00" arrivalLane="23493260#7_1" arrivalPos="59.96" arrivalSpeed="12.98" duration="128.00" routeLength="1448.68" waitSteps="0" rerouteNo="1" devices="tripinfo_159074_159074_421 hbefa_159074_159074_421" vType="DEFAULT_VEHTYPE" vaporized="">
        <emissions CO_abs="3108.933156" CO2_abs="289572.292870" HC_abs="82.621455" PMx_abs="30.253802" NOx_abs="585.262712" fuel_abs="115.448051"/>
    </tripinfo>
    <tripinfo id="158101_158101_421" depart="25408.00" departLane="2829323#0_0" departPos="5.10" departSpeed="0.00" departDelay="1.00" arrival="25432.00" arrivalLane="23471158#9_0" arrivalPos="213.75" arrivalSpeed="26.67" duration="24.00" routeLength="305.22" waitSteps="0" rerouteNo="1" devices="tripinfo_158101_158101_421 hbefa_158101_158101_421" vType="DEFAULT_VEHTYPE" vaporized="">
        <emissions CO_abs="2182.569951" CO2_abs="136438.111192" HC_abs="45.012646" PMx_abs="17.059524" NOx_abs="299.864262" fuel_abs="54.395815"/>
    </tripinfo>
    <tripinfo id="166839_166839_424" depart="25356.00" departLane="31694310#0_0" departPos="5.10" departSpeed="0.00" departDelay="1.00" arrival="25433.00" arrivalLane="37866521#1_0" arrivalPos="52.00" arrivalSpeed="13.70" duration="77.00" routeLength="837.58" waitSteps="0" rerouteNo="1" devices="tripinfo_166839_166839_424 hbefa_166839_166839_424" vType="DEFAULT_VEHTYPE" vaporized="">
        <emissions CO_abs="3463.352081" CO2_abs="240956.074743" HC_abs="75.338897" PMx_abs="28.684472" NOx_abs="516.770151" fuel_abs="96.065569"/>
    </tripinfo>
    <tripinfo id="151883_151883_419" depart="25348.00" departLane="28557537#1_0" departPos="5.10" departSpeed="0.00" departDelay="0.00" arrival="25434.00" arrivalLane="28542995#0_1" arrivalPos="102.48" arrivalSpeed="13.76" duration="86.00" routeLength="1000.44" waitSteps="0" rerouteNo="1" devices="tripinfo_151883_151883_419 hbefa_151883_151883_419" vType="DEFAULT_VEHTYPE" vaporized="">
        <emissions CO_abs="3031.072143" CO2_abs="236937.208379" HC_abs="71.661371" PMx_abs="27.462500" NOx_abs="497.276211" fuel_abs="94.463252"/>
    </tripinfo>
    <tripinfo id="91681_91681_392" depart="25211.00" departLane="185767958#1_0" departPos="5.10" departSpeed="0.00" departDelay="11.00" arrival="25434.00" arrivalLane="69366483_0" arrivalPos="108.40" arrivalSpeed="7.24" duration="223.00" routeLength="2138.69" waitSteps="0" rerouteNo="1" devices="tripinfo_91681_91681_392 hbefa_91681_91681_392" vType="DEFAULT_VEHTYPE" vaporized="">
        <emissions CO_abs="4715.400058" CO2_abs="436128.971186" HC_abs="127.413075" PMx_abs="44.705009" NOx_abs="874.637424" fuel_abs="173.877955"/>
    </tripinfo>
    <tripinfo id="166399_166399_424" depart="25372.00" departLane="180723491_0" departPos="5.10" departSpeed="0.00" departDelay="0.00" arrival="25436.00" arrivalLane="154743411#1-AddedOnRampEdge_0" arrivalPos="103.60" arrivalSpeed="24.13" duration="64.00" routeLength="684.99" waitSteps="0" rerouteNo="1" devices="tripinfo_166399_166399_424 hbefa_166399_166399_424" vType="DEFAULT_VEHTYPE" vaporized="">
        <emissions CO_abs="2981.666279" CO2_abs="197968.752243" HC_abs="64.446955" PMx_abs="25.169393" NOx_abs="430.726818" fuel_abs="78.927113"/>
    </tripinfo>
    <tripinfo id="154290_154290_420" depart="25360.00" departLane="9207800#0_0" departPos="5.10" departSpeed="0.00" departDelay="0.00" arrival="25437.00" arrivalLane="48405468#0_0" arrivalPos="147.93" arrivalSpeed="7.38" duration="77.00" routeLength="729.57" waitSteps="0" rerouteNo="2" devices="tripinfo_154290_154290_420 hbefa_154290_154290_420" vType="DEFAULT_VEHTYPE" vaporized="">
        <emissions CO_abs="2800.158380" CO2_abs="200870.635475" HC_abs="63.493378" PMx_abs="22.782275" NOx_abs="424.063780" fuel_abs="80.084088"/>
    </tripinfo>
    <tripinfo id="143734_143734_416" depart="25336.00" departLane="28557537#1_0" departPos="5.10" departSpeed="0.00" departDelay="0.00" arrival="25438.00" arrivalLane="145575263_1" arrivalPos="260.32" arrivalSpeed="12.89" duration="102.00" routeLength="357.91" waitSteps="0" rerouteNo="2" devices="tripinfo_143734_143734_416 hbefa_143734_143734_416" vType="DEFAULT_VEHTYPE" vaporized="">
        <emissions CO_abs="2236.084788" CO2_abs="210477.027350" HC_abs="60.138165" PMx_abs="21.508928" NOx_abs="423.184470" fuel_abs="83.913980"/>
    </tripinfo>
    <tripinfo id="152647_152647_419" depart="25309.00" departLane="37331980#0_0" departPos="5.10" departSpeed="0.00" departDelay="0.00" arrival="25440.00" arrivalLane="2832027#0_0" arrivalPos="102.82" arrivalSpeed="7.36" duration="131.00" routeLength="234.50" waitSteps="12" rerouteNo="2" devices="tripinfo_152647_152647_419 hbefa_152647_152647_419" vType="DEFAULT_VEHTYPE" vaporized="">
        <emissions CO_abs="2695.716219" CO2_abs="244854.145347" HC_abs="73.129965" PMx_abs="25.362766" NOx_abs="491.893470" fuel_abs="97.619593"/>
    </tripinfo>
    <tripinfo id="121884_121884_406" depart="25205.00" departLane="154743410#2_0" departPos="5.10" departSpeed="0.00" departDelay="5.00" arrival="25442.00" arrivalLane="145575263_1" arrivalPos="260.32" arrivalSpeed="13.70" duration="237.00" routeLength="357.91" waitSteps="25" rerouteNo="4" devices="tripinfo_121884_121884_406 hbefa_121884_121884_406" vType="DEFAULT_VEHTYPE" vaporized="">
        <emissions CO_abs="5149.104773" CO2_abs="446582.254242" HC_abs="138.008870" PMx_abs="47.046680" NOx_abs="900.076586" fuel_abs="178.045492"/>
    </tripinfo>
    <tripinfo id="162132_162132_421" depart="25247.00" departLane="151057637#2_0" departPos="5.10" departSpeed="0.00" departDelay="0.00" arrival="25446.00" arrivalLane="145575263_1" arrivalPos="260.32" arrivalSpeed="13.37" duration="199.00" routeLength="357.91" waitSteps="11" rerouteNo="3" devices="tripinfo_162132_162132_421 hbefa_162132_162132_421" vType="DEFAULT_VEHTYPE" vaporized="">
        <emissions CO_abs="4688.849089" CO2_abs="396880.464045" HC_abs="120.876375" PMx_abs="42.152478" NOx_abs="807.337202" fuel_abs="158.230184"/>
    </tripinfo>
    <tripinfo id="108411_108411_400" depart="25203.00" departLane="154743410#2_0" departPos="5.10" departSpeed="0.00" departDelay="3.00" arrival="25450.00" arrivalLane="145575263_1" arrivalPos="260.32" arrivalSpeed="12.70" duration="247.00" routeLength="357.91" waitSteps="0" rerouteNo="5" devices="tripinfo_108411_108411_400 hbefa_108411_108411_400" vType="DEFAULT_VEHTYPE" vaporized="">
        <emissions CO_abs="4748.644027" CO2_abs="438576.056584" HC_abs="128.695559" PMx_abs="45.756955" NOx_abs="881.843650" fuel_abs="174.853542"/>
    </tripinfo>
    <tripinfo id="151413_151413_418" depart="25412.00" departLane="8225102_0" departPos="5.10" departSpeed="0.00" departDelay="0.00" arrival="25469.00" arrivalLane="85470309#4_0" arrivalPos="208.83" arrivalSpeed="13.31" duration="57.00" routeLength="531.09" waitSteps="0" rerouteNo="1" devices="tripinfo_151413_151413_418 hbefa_151413_151413_418" vType="DEFAULT_VEHTYPE" vaporized="">
        <emissions CO_abs="1764.138336" CO2_abs="133485.219028" HC_abs="42.232662" PMx_abs="15.658859" NOx_abs="280.141663" fuel_abs="53.218498"/>
    </tripinfo>
    <tripinfo id="160282_160282_421" depart="25320.00" departLane="53212168#0_0" departPos="5.10" departSpeed="0.00" departDelay="0.00" arrival="25477.00" arrivalLane="85470309#4_0" arrivalPos="208.83" arrivalSpeed="13.57" duration="157.00" routeLength="651.34" waitSteps="9" rerouteNo="1" devices="tripinfo_160282_160282_421 hbefa_160282_160282_421" vType="DEFAULT_VEHTYPE" vaporized="">
        <emissions CO_abs="4611.814272" CO2_abs="370840.556405" HC_abs="113.288424" PMx_abs="41.950620" NOx_abs="769.165853" fuel_abs="147.848452"/>
    </tripinfo>
    <tripinfo id="144164_144164_416" depart="25465.00" departLane="110967367#0_0" departPos="5.10" departSpeed="0.00" departDelay="0.00" arrival="25478.00" arrivalLane="110967367#0_0" arrivalPos="154.26" arrivalSpeed="23.26" duration="13.00" routeLength="149.16" waitSteps="0" rerouteNo="1" devices="tripinfo_144164_144164_416 hbefa_144164_144164_416" vType="DEFAULT_VEHTYPE" vaporized="">
        <emissions CO_abs="1358.577165" CO2_abs="83069.825863" HC_abs="28.002528" PMx_abs="10.822820" NOx_abs="183.962125" fuel_abs="33.118674"/>
    </tripinfo>
    <tripinfo id="176127_176127_428" depart="25453.00" departLane="31694310#0_0" departPos="5.10" departSpeed="0.00" departDelay="0.00" arrival="25487.00" arrivalLane="8225124#0_0" arrivalPos="91.75" arrivalSpeed="12.69" duration="34.00" routeLength="455.19" waitSteps="0" rerouteNo="1" devices="tripinfo_176127_176127_428 hbefa_176127_176127_428" vType="DEFAULT_VEHTYPE" vaporized="">
        <emissions CO_abs="1466.141873" CO2_abs="105903.511738" HC_abs="32.781539" PMx_abs="12.469272" NOx_abs="225.812191" fuel_abs="42.222123"/>
    </tripinfo>
    <tripinfo id="144131_144131_416" depart="25459.00" departLane="8225144#1_0" departPos="5.10" departSpeed="0.00" departDelay="0.00" arrival="25513.00" arrivalLane="-69366482#2_0" arrivalPos="64.24" arrivalSpeed="12.94" duration="54.00" routeLength="491.71" waitSteps="3" rerouteNo="1" devices="tripinfo_144131_144131_416 hbefa_144131_144131_416" vType="DEFAULT_VEHTYPE" vaporized="">
        <emissions CO_abs="1478.117755" CO2_abs="118175.001345" HC_abs="36.130976" PMx_abs="13.481615" NOx_abs="245.563193" fuel_abs="47.114559"/>
    </tripinfo>
    <tripinfo id="162625_162625_422" depart="25381.00" departLane="37331980#0_0" departPos="5.10" departSpeed="0.00" departDelay="0.00" arrival="25514.00" arrivalLane="23471158#9_0" arrivalPos="213.75" arrivalSpeed="27.12" duration="133.00" routeLength="316.97" waitSteps="18" rerouteNo="2" devices="tripinfo_162625_162625_422 hbefa_162625_162625_422" vType="DEFAULT_VEHTYPE" vaporized="">
        <emissions CO_abs="4374.122268" CO2_abs="328828.211451" HC_abs="104.159988" PMx_abs="37.256700" NOx_abs="687.004857" fuel_abs="131.098805"/>
    </tripinfo>
    <tripinfo id="174896_174896_427" depart="25401.00" departLane="31694310#0_0" departPos="5.10" departSpeed="0.00" departDelay="0.00" arrival="25514.00" arrivalLane="37866521#1_0" arrivalPos="52.00" arrivalSpeed="13.01" duration="113.00" routeLength="837.58" waitSteps="0" rerouteNo="2" devices="tripinfo_174896_174896_427 hbefa_174896_174896_427" vType="DEFAULT_VEHTYPE" vaporized="">
        <emissions CO_abs="4046.862314" CO2_abs="309073.369607" HC_abs="94.282436" PMx_abs="35.626431" NOx_abs="650.120456" fuel_abs="123.222858"/>
    </tripinfo>
    <tripinfo id="140110_140110_414" depart="25366.00" departLane="28557537#1_0" departPos="5.10" departSpeed="0.00" departDelay="0.00" arrival="25517.00" arrivalLane="145575263_1" arrivalPos="260.32" arrivalSpeed="13.10" duration="151.00" routeLength="357.91" waitSteps="40" rerouteNo="2" devices="tripinfo_140110_140110_414 hbefa_140110_140110_414" vType="DEFAULT_VEHTYPE" vaporized="">
        <emissions CO_abs="2909.291918" CO2_abs="258200.629491" HC_abs="82.924541" PMx_abs="25.662017" NOx_abs="509.564185" fuel_abs="102.940635"/>
    </tripinfo>
    <tripinfo id="150772_150772_418" depart="25507.00" departLane="151057637#2_0" departPos="5.10" departSpeed="0.00" departDelay="0.00" arrival="25522.00" arrivalLane="9207798_0" arrivalPos="76.33" arrivalSpeed="26.88" duration="15.00" routeLength="193.79" waitSteps="0" rerouteNo="2" devices="tripinfo_150772_150772_418 hbefa_150772_150772_418" vType="DEFAULT_VEHTYPE" vaporized="">
        <emissions CO_abs="1981.418534" CO2_abs="113898.921702" HC_abs="38.908351" PMx_abs="15.351106" NOx_abs="256.632467" fuel_abs="45.409783"/>
    </tripinfo>
    <tripinfo id="151280_151280_418" depart="25421.00" departLane="37331980#0_0" departPos="5.10" departSpeed="0.00" departDelay="0.00" arrival="25529.00" arrivalLane="23471158#9_0" arrivalPos="213.75" arrivalSpeed="26.78" duration="108.00" routeLength="316.97" waitSteps="0" rerouteNo="2" devices="tripinfo_151280_151280_418 hbefa_151280_151280_418" vType="DEFAULT_VEHTYPE" vaporized="">
        <emissions CO_abs="3899.723125" CO2_abs="301952.668951" HC_abs="91.151058" PMx_abs="33.831654" NOx_abs="632.092433" fuel_abs="120.383958"/>
    </tripinfo>