<?xml version="1.0" encoding="UTF-8"?>

<!-- generated on Thu Apr 17 23:42:10 2014 by SUMO sumo Version dev-SVN-r15641
<?xml version="1.0" encoding="UTF-8"?>

<configuration xmlns:xsi="http://www.w3.org/2001/XMLSchema-instance" xsi:noNamespaceSchemaLocation="http://sumo-sim.org/xsd/sumoConfiguration.xsd">

    <input>
        <net-file value="data/map.net.xml"/>
        <route-files value="data/map.rou.xml"/>
    </input>

    <output>
        <tripinfo-output value="data/maptripinfoLocal.out.xml"/>
        <save-state.prefix value="data/state"/>
    </output>

    <time>
        <begin value="27000"/>
        <end value="27900"/>
    </time>

    <processing>
        <route-steps value="200"/>
        <scale value="0.8"/>
        <time-to-teleport value="300"/>
        <lanechange.allow-swap value="true"/>
    </processing>

    <report>
        <verbose value="true"/>
        <no-warnings value="true"/>
        <no-step-log value="true"/>
    </report>

    <emissions>
        <device.hbefa.probability value="1"/>
    </emissions>

    <traci_server>
        <remote-port value="8814"/>
    </traci_server>

</configuration>
-->

<tripinfos>
    <tripinfo id="136022_136022_411" depart="27003.00" departLane="23800191#2_0" departPos="5.10" departSpeed="0.00" departDelay="3.00" arrival="27009.00" arrivalLane="23800191#2_0" arrivalPos="38.41" arrivalSpeed="11.30" duration="6.00" routeLength="33.31" waitSteps="0" rerouteNo="1" devices="tripinfo_136022_136022_411 hbefa_136022_136022_411" vType="DEFAULT_VEHTYPE" vaporized="">
        <emissions CO_abs="327.360194" CO2_abs="22314.129339" HC_abs="7.672004" PMx_abs="2.750296" NOx_abs="47.427400" fuel_abs="8.896297"/>
    </tripinfo>
    <tripinfo id="182087_182087_431" depart="27000.00" departLane="4380937#2_0" departPos="5.10" departSpeed="0.00" departDelay="0.00" arrival="27011.00" arrivalLane="4380937#3_0" arrivalPos="72.76" arrivalSpeed="12.98" duration="11.00" routeLength="103.50" waitSteps="0" rerouteNo="2" devices="tripinfo_182087_182087_431 hbefa_182087_182087_431" vType="DEFAULT_VEHTYPE" vaporized="">
        <emissions CO_abs="472.107127" CO2_abs="37273.680349" HC_abs="11.669823" PMx_abs="4.326300" NOx_abs="77.463230" fuel_abs="14.860443"/>
    </tripinfo>
    <tripinfo id="72912_72912_384" depart="27003.00" departLane="9207803_0" departPos="5.10" departSpeed="0.00" departDelay="3.00" arrival="27013.00" arrivalLane="9207803_0" arrivalPos="69.23" arrivalSpeed="8.17" duration="10.00" routeLength="64.13" waitSteps="0" rerouteNo="1" devices="tripinfo_72912_72912_384 hbefa_72912_72912_384" vType="DEFAULT_VEHTYPE" vaporized="">
        <emissions CO_abs="196.055991" CO2_abs="18178.309835" HC_abs="5.712624" PMx_abs="1.906109" NOx_abs="35.897424" fuel_abs="7.247410"/>
    </tripinfo>
    <tripinfo id="105435_105435_398" depart="27003.00" departLane="145474196#1_0" departPos="5.10" departSpeed="0.00" departDelay="3.00" arrival="27014.00" arrivalLane="145474196#1_0" arrivalPos="94.12" arrivalSpeed="13.10" duration="11.00" routeLength="89.02" waitSteps="0" rerouteNo="1" devices="tripinfo_105435_105435_398 hbefa_105435_105435_398" vType="DEFAULT_VEHTYPE" vaporized="">
        <emissions CO_abs="782.532650" CO2_abs="48715.738613" HC_abs="16.683366" PMx_abs="6.605831" NOx_abs="107.633804" fuel_abs="19.422210"/>
    </tripinfo>
    <tripinfo id="251564_251564_457" depart="27002.00" departLane="51113317_0" departPos="5.10" departSpeed="0.00" departDelay="0.00" arrival="27014.00" arrivalLane="51113317_0" arrivalPos="125.08" arrivalSpeed="13.46" duration="12.00" routeLength="119.98" waitSteps="0" rerouteNo="1" devices="tripinfo_251564_251564_457 hbefa_251564_251564_457" vType="DEFAULT_VEHTYPE" vaporized="">
        <emissions CO_abs="506.379492" CO2_abs="37797.868864" HC_abs="12.048140" PMx_abs="4.403750" NOx_abs="79.406374" fuel_abs="15.069428"/>
    </tripinfo>
    <tripinfo id="92380_92380_392" depart="27000.00" departLane="-154755073#3_0" departPos="5.10" departSpeed="0.00" departDelay="0.00" arrival="27015.00" arrivalLane="-154755073#3_0" arrivalPos="102.52" arrivalSpeed="8.32" duration="15.00" routeLength="97.42" waitSteps="0" rerouteNo="1" devices="tripinfo_92380_92380_392 hbefa_92380_92380_392" vType="DEFAULT_VEHTYPE" vaporized="">
        <emissions CO_abs="196.678381" CO2_abs="25891.237647" HC_abs="7.489484" PMx_abs="2.149246" NOx_abs="47.647388" fuel_abs="10.322436"/>
    </tripinfo>
    <tripinfo id="105964_105964_399" depart="27006.00" departLane="145474196#1_0" departPos="5.10" departSpeed="0.00" departDelay="6.00" arrival="27017.00" arrivalLane="145474196#1_0" arrivalPos="94.12" arrivalSpeed="13.54" duration="11.00" routeLength="89.02" waitSteps="0" rerouteNo="1" devices="tripinfo_105964_105964_399 hbefa_105964_105964_399" vType="DEFAULT_VEHTYPE" vaporized="">
        <emissions CO_abs="390.621512" CO2_abs="35698.338012" HC_abs="10.693336" PMx_abs="3.659194" NOx_abs="71.482825" fuel_abs="14.232380"/>
    </tripinfo>
    <tripinfo id="84049_84049_390" depart="27006.00" departLane="9207803_0" departPos="5.10" departSpeed="0.00" departDelay="6.00" arrival="27017.00" arrivalLane="9207803_0" arrivalPos="69.23" arrivalSpeed="7.05" duration="11.00" routeLength="64.13" waitSteps="0" rerouteNo="1" devices="tripinfo_84049_84049_390 hbefa_84049_84049_390" vType="DEFAULT_VEHTYPE" vaporized="">
        <emissions CO_abs="175.148267" CO2_abs="16593.969470" HC_abs="5.344829" PMx_abs="1.602249" NOx_abs="32.160331" fuel_abs="6.615758"/>
    </tripinfo>
    <tripinfo id="232041_232041_451" depart="27002.00" departLane="28523795_0" departPos="5.10" departSpeed="0.00" departDelay="0.00" arrival="27020.00" arrivalLane="28523795_0" arrivalPos="192.02" arrivalSpeed="13.70" duration="18.00" routeLength="186.92" waitSteps="0" rerouteNo="1" devices="tripinfo_232041_232041_451 hbefa_232041_232041_451" vType="DEFAULT_VEHTYPE" vaporized="">
        <emissions CO_abs="477.625868" CO2_abs="47109.889062" HC_abs="13.423641" PMx_abs="4.688675" NOx_abs="93.604853" fuel_abs="18.781993"/>
    </tripinfo>
    <tripinfo id="135880_135880_411" depart="27000.00" departLane="150039002#2_0" departPos="5.10" departSpeed="0.00" departDelay="0.00" arrival="27021.00" arrivalLane="150039002#2_0" arrivalPos="249.40" arrivalSpeed="13.73" duration="21.00" routeLength="244.30" waitSteps="0" rerouteNo="1" devices="tripinfo_135880_135880_411 hbefa_135880_135880_411" vType="DEFAULT_VEHTYPE" vaporized="">
        <emissions CO_abs="593.511533" CO2_abs="48623.569206" HC_abs="14.737643" PMx_abs="5.384030" NOx_abs="100.432493" fuel_abs="19.385472"/>
    </tripinfo>
    <tripinfo id="219187_219187_446" depart="27000.00" departLane="144935690_0" departPos="5.10" departSpeed="0.00" departDelay="0.00" arrival="27022.00" arrivalLane="25997632_0" arrivalPos="136.14" arrivalSpeed="13.24" duration="22.00" routeLength="241.37" waitSteps="0" rerouteNo="1" devices="tripinfo_219187_219187_446 hbefa_219187_219187_446" vType="DEFAULT_VEHTYPE" vaporized="">
        <emissions CO_abs="520.135811" CO2_abs="51523.401124" HC_abs="14.562880" PMx_abs="5.124852" NOx_abs="102.465061" fuel_abs="20.541594"/>
    </tripinfo>
    <tripinfo id="206737_206737_440" depart="27007.00" departLane="-29206900_0" departPos="5.10" departSpeed="0.00" departDelay="0.00" arrival="27022.00" arrivalLane="29207110_0" arrivalPos="28.94" arrivalSpeed="13.74" duration="15.00" routeLength="103.46" waitSteps="0" rerouteNo="1" devices="tripinfo_206737_206737_440 hbefa_206737_206737_440" vType="DEFAULT_VEHTYPE" vaporized="">
        <emissions CO_abs="496.304026" CO2_abs="38155.684558" HC_abs="12.369423" PMx_abs="4.386951" NOx_abs="79.014568" fuel_abs="15.212081"/>
    </tripinfo>
    <tripinfo id="110327_110327_401" depart="27000.00" departLane="53212166#0_0" departPos="5.10" departSpeed="0.00" departDelay="0.00" arrival="27023.00" arrivalLane="28542995#2_2" arrivalPos="61.74" arrivalSpeed="13.79" duration="23.00" routeLength="231.82" waitSteps="0" rerouteNo="1" devices="tripinfo_110327_110327_401 hbefa_110327_110327_401" vType="DEFAULT_VEHTYPE" vaporized="">
        <emissions CO_abs="586.112482" CO2_abs="52924.963936" HC_abs="15.644288" PMx_abs="5.567789" NOx_abs="106.913788" fuel_abs="21.100372"/>
    </tripinfo>
    <tripinfo id="225541_225541_450" depart="27000.00" departLane="9207803_0" departPos="5.10" departSpeed="0.00" departDelay="0.00" arrival="27023.00" arrivalLane="154755073#3_0" arrivalPos="102.52" arrivalSpeed="7.63" duration="23.00" routeLength="166.65" waitSteps="0" rerouteNo="1" devices="tripinfo_225541_225541_450 hbefa_225541_225541_450" vType="DEFAULT_VEHTYPE" vaporized="">
        <emissions CO_abs="212.202700" CO2_abs="27140.712034" HC_abs="7.825743" PMx_abs="2.311434" NOx_abs="50.412274" fuel_abs="10.820582"/>
    </tripinfo>
    <tripinfo id="225242_225242_449" depart="27000.00" departLane="154755124_0" departPos="5.10" departSpeed="0.00" departDelay="0.00" arrival="27024.00" arrivalLane="4380937#3_1" arrivalPos="72.76" arrivalSpeed="13.44" duration="24.00" routeLength="189.24" waitSteps="0" rerouteNo="2" devices="tripinfo_225242_225242_449 hbefa_225242_225242_449" vType="DEFAULT_VEHTYPE" vaporized="">
        <emissions CO_abs="687.669464" CO2_abs="56424.317678" HC_abs="17.796304" PMx_abs="6.281029" NOx_abs="115.354430" fuel_abs="22.495504"/>
    </tripinfo>
    <tripinfo id="141415_141415_415" depart="27003.00" departLane="150039002#2_0" departPos="5.10" departSpeed="0.00" departDelay="3.00" arrival="27024.00" arrivalLane="150039002#2_0" arrivalPos="249.40" arrivalSpeed="13.41" duration="21.00" routeLength="244.30" waitSteps="0" rerouteNo="1" devices="tripinfo_141415_141415_415 hbefa_141415_141415_415" vType="DEFAULT_VEHTYPE" vaporized="">
        <emissions CO_abs="551.998061" CO2_abs="53601.544979" HC_abs="15.189774" PMx_abs="5.403758" NOx_abs="107.163092" fuel_abs="21.370118"/>
    </tripinfo>
    <tripinfo id="75851_75851_386" depart="27002.00" departLane="28542995#2_0" departPos="5.10" departSpeed="0.00" departDelay="2.00" arrival="27024.00" arrivalLane="23493181#0_0" arrivalPos="88.20" arrivalSpeed="8.11" duration="22.00" routeLength="144.84" waitSteps="0" rerouteNo="1" devices="tripinfo_75851_75851_386 hbefa_75851_75851_386" vType="DEFAULT_VEHTYPE" vaporized="">
        <emissions CO_abs="514.373320" CO2_abs="42273.529845" HC_abs="13.676918" PMx_abs="4.644226" NOx_abs="85.764828" fuel_abs="16.853800"/>
    </tripinfo>
    <tripinfo id="148867_148867_417" depart="27006.00" departLane="3065455_0" departPos="5.10" departSpeed="0.00" departDelay="6.00" arrival="27024.00" arrivalLane="23800191#0_0" arrivalPos="143.94" arrivalSpeed="13.83" duration="18.00" routeLength="194.49" waitSteps="0" rerouteNo="1" devices="tripinfo_148867_148867_417 hbefa_148867_148867_417" vType="DEFAULT_VEHTYPE" vaporized="">
        <emissions CO_abs="487.153077" CO2_abs="45281.392967" HC_abs="13.212742" PMx_abs="4.607711" NOx_abs="90.825119" fuel_abs="18.052999"/>
    </tripinfo>
    <tripinfo id="136596_136596_411" depart="27003.00" departLane="131651824_0" departPos="5.10" departSpeed="0.00" departDelay="3.00" arrival="27026.00" arrivalLane="4400211#0_0" arrivalPos="197.56" arrivalSpeed="13.02" duration="23.00" routeLength="253.49" waitSteps="0" rerouteNo="1" devices="tripinfo_136596_136596_411 hbefa_136596_136596_411" vType="DEFAULT_VEHTYPE" vaporized="">
        <emissions CO_abs="763.787254" CO2_abs="64025.595437" HC_abs="19.089318" PMx_abs="7.200824" NOx_abs="132.178228" fuel_abs="25.526025"/>
    </tripinfo>
    <tripinfo id="220353_220353_447" depart="27001.00" departLane="-165515969#3_0" departPos="5.10" departSpeed="0.00" departDelay="0.00" arrival="27027.00" arrivalLane="-165511531#0_0" arrivalPos="53.73" arrivalSpeed="13.10" duration="26.00" routeLength="345.81" waitSteps="0" rerouteNo="2" devices="tripinfo_220353_220353_447 hbefa_220353_220353_447" vType="DEFAULT_VEHTYPE" vaporized="">
        <emissions CO_abs="2281.478660" CO2_abs="137254.087768" HC_abs="46.218661" PMx_abs="17.985460" NOx_abs="305.391332" fuel_abs="54.721123"/>
    </tripinfo>
    <tripinfo id="134089_134089_411" depart="27000.00" departLane="23800191#2_0" departPos="5.10" departSpeed="0.00" departDelay="0.00" arrival="27028.00" arrivalLane="4400211#0_0" arrivalPos="197.56" arrivalSpeed="13.10" duration="28.00" routeLength="291.90" waitSteps="0" rerouteNo="1" devices="tripinfo_134089_134089_411 hbefa_134089_134089_411" vType="DEFAULT_VEHTYPE" vaporized="">
        <emissions CO_abs="810.565939" CO2_abs="69631.196098" HC_abs="20.781715" PMx_abs="7.493425" NOx_abs="142.312622" fuel_abs="27.760890"/>
    </tripinfo>
    <tripinfo id="68737_68737_381" depart="27013.00" departLane="23493176_0" departPos="5.10" departSpeed="0.00" departDelay="13.00" arrival="27029.00" arrivalLane="23493176_1" arrivalPos="83.31" arrivalSpeed="4.46" duration="16.00" routeLength="78.21" waitSteps="0" rerouteNo="1" devices="tripinfo_68737_68737_381 hbefa_68737_68737_381" vType="DEFAULT_VEHTYPE" vaporized="">
        <emissions CO_abs="211.801615" CO2_abs="22041.670670" HC_abs="6.971955" PMx_abs="1.998808" NOx_abs="41.804925" fuel_abs="8.787672"/>
    </tripinfo>
    <tripinfo id="188835_188835_434" depart="27006.00" departLane="187965762#1_0" departPos="5.10" departSpeed="0.00" departDelay="6.00" arrival="27030.00" arrivalLane="187965762#2_0" arrivalPos="85.18" arrivalSpeed="7.90" duration="24.00" routeLength="168.92" waitSteps="0" rerouteNo="1" devices="tripinfo_188835_188835_434 hbefa_188835_188835_434" vType="DEFAULT_VEHTYPE" vaporized="">
        <emissions CO_abs="205.149915" CO2_abs="29599.599425" HC_abs="8.383811" PMx_abs="2.365866" NOx_abs="53.857991" fuel_abs="11.800902"/>
    </tripinfo>
    <tripinfo id="187318_187318_433" depart="27013.00" departLane="-83823403#2_0" departPos="5.10" departSpeed="0.00" departDelay="0.00" arrival="27031.00" arrivalLane="-83823403#2_0" arrivalPos="184.87" arrivalSpeed="11.60" duration="18.00" routeLength="179.77" waitSteps="0" rerouteNo="1" devices="tripinfo_187318_187318_433 hbefa_187318_187318_433" vType="DEFAULT_VEHTYPE" vaporized="">
        <emissions CO_abs="648.685859" CO2_abs="49668.369801" HC_abs="15.638584" PMx_abs="5.698454" NOx_abs="103.784977" fuel_abs="19.802014"/>
    </tripinfo>
    <tripinfo id="122617_122617_406" depart="27000.00" departLane="131651824_0" departPos="5.10" departSpeed="0.00" departDelay="0.00" arrival="27031.00" arrivalLane="130875842_0" arrivalPos="81.21" arrivalSpeed="13.54" duration="31.00" routeLength="334.70" waitSteps="0" rerouteNo="1" devices="tripinfo_122617_122617_406 hbefa_122617_122617_406" vType="DEFAULT_VEHTYPE" vaporized="">
        <emissions CO_abs="1007.040350" CO2_abs="73953.167418" HC_abs="23.472026" PMx_abs="8.670141" NOx_abs="156.326590" fuel_abs="29.483990"/>
    </tripinfo>
    <tripinfo id="212444_212444_443" depart="27003.00" departLane="166155712#0_0" departPos="5.10" departSpeed="0.00" departDelay="0.00" arrival="27032.00" arrivalLane="33469672_0" arrivalPos="142.78" arrivalSpeed="12.94" duration="29.00" routeLength="317.06" waitSteps="0" rerouteNo="1" devices="tripinfo_212444_212444_443 hbefa_212444_212444_443" vType="DEFAULT_VEHTYPE" vaporized="">
        <emissions CO_abs="967.270622" CO2_abs="75876.087901" HC_abs="23.375945" PMx_abs="8.774800" NOx_abs="158.540713" fuel_abs="30.250631"/>
    </tripinfo>
    <tripinfo id="103637_103637_397" depart="27000.00" departLane="145474196#1_0" departPos="5.10" departSpeed="0.00" departDelay="0.00" arrival="27033.00" arrivalLane="150039002#2_1" arrivalPos="249.40" arrivalSpeed="12.65" duration="33.00" routeLength="361.28" waitSteps="0" rerouteNo="1" devices="tripinfo_103637_103637_397 hbefa_103637_103637_397" vType="DEFAULT_VEHTYPE" vaporized="">
        <emissions CO_abs="893.248156" CO2_abs="79216.541313" HC_abs="23.322567" PMx_abs="8.371965" NOx_abs="160.877497" fuel_abs="31.582422"/>
    </tripinfo>
    <tripinfo id="144652_144652_416" depart="27000.00" departLane="3065455_0" departPos="5.10" departSpeed="0.00" departDelay="0.00" arrival="27033.00" arrivalLane="130659365_0" arrivalPos="223.21" arrivalSpeed="8.90" duration="33.00" routeLength="365.42" waitSteps="0" rerouteNo="1" devices="tripinfo_144652_144652_416 hbefa_144652_144652_416" vType="DEFAULT_VEHTYPE" vaporized="">
        <emissions CO_abs="696.988307" CO2_abs="69368.054778" HC_abs="19.526259" PMx_abs="6.943641" NOx_abs="138.018119" fuel_abs="27.655984"/>
    </tripinfo>
    <tripinfo id="208001_208001_441" depart="27001.00" departLane="-83823403#2_0" departPos="5.10" departSpeed="0.00" departDelay="0.00" arrival="27033.00" arrivalLane="23015529#0_0" arrivalPos="184.87" arrivalSpeed="13.14" duration="32.00" routeLength="364.64" waitSteps="0" rerouteNo="0" devices="tripinfo_208001_208001_441 hbefa_208001_208001_441" vType="DEFAULT_VEHTYPE" vaporized="">
        <emissions CO_abs="891.528261" CO2_abs="79686.628670" HC_abs="23.209641" PMx_abs="8.516030" NOx_abs="162.081610" fuel_abs="31.769841"/>
    </tripinfo>
    <tripinfo id="103310_103310_397" depart="27000.00" departLane="83703645_0" departPos="5.10" departSpeed="0.00" departDelay="0.00" arrival="27035.00" arrivalLane="23493177#0_0" arrivalPos="166.52" arrivalSpeed="7.06" duration="35.00" routeLength="279.85" waitSteps="0" rerouteNo="1" devices="tripinfo_103310_103310_397 hbefa_103310_103310_397" vType="DEFAULT_VEHTYPE" vaporized="">
        <emissions CO_abs="520.914340" CO2_abs="50462.667712" HC_abs="15.241523" PMx_abs="5.105174" NOx_abs="99.324602" fuel_abs="20.118685"/>
    </tripinfo>
    <tripinfo id="217202_217202_446" depart="27007.00" departLane="-83823403#2_0" departPos="5.10" departSpeed="0.00" departDelay="0.00" arrival="27035.00" arrivalLane="23015533_0" arrivalPos="110.79" arrivalSpeed="13.25" duration="28.00" routeLength="290.56" waitSteps="0" rerouteNo="1" devices="tripinfo_217202_217202_446 hbefa_217202_217202_446" vType="DEFAULT_VEHTYPE" vaporized="">
        <emissions CO_abs="960.955597" CO2_abs="74727.082453" HC_abs="23.187986" PMx_abs="8.701401" NOx_abs="156.323483" fuel_abs="29.792540"/>
    </tripinfo>
    <tripinfo id="118681_118681_405" depart="27000.00" departLane="23471158#6_0" departPos="5.10" departSpeed="0.00" departDelay="0.00" arrival="27038.00" arrivalLane="32856811#2_1" arrivalPos="144.91" arrivalSpeed="13.39" duration="38.00" routeLength="447.44" waitSteps="0" rerouteNo="1" devices="tripinfo_118681_118681_405 hbefa_118681_118681_405" vType="DEFAULT_VEHTYPE" vaporized="">
        <emissions CO_abs="1066.391624" CO2_abs="96782.848496" HC_abs="27.866782" PMx_abs="10.177665" NOx_abs="196.381407" fuel_abs="38.585845"/>
    </tripinfo>
    <tripinfo id="238887_238887_451" depart="27010.00" departLane="-83823403#2_0" departPos="5.10" departSpeed="0.00" departDelay="0.00" arrival="27038.00" arrivalLane="23015533_0" arrivalPos="110.79" arrivalSpeed="13.34" duration="28.00" routeLength="290.56" waitSteps="0" rerouteNo="1" devices="tripinfo_238887_238887_451 hbefa_238887_238887_451" vType="DEFAULT_VEHTYPE" vaporized="">
        <emissions CO_abs="937.675528" CO2_abs="74374.541638" HC_abs="22.986347" PMx_abs="8.331940" NOx_abs="154.369760" fuel_abs="29.651986"/>
    </tripinfo>
    <tripinfo id="154499_154499_420" depart="27000.00" departLane="28542995#0_0" departPos="5.10" departSpeed="0.00" departDelay="0.00" arrival="27039.00" arrivalLane="23493260#4_1" arrivalPos="126.60" arrivalSpeed="13.12" duration="39.00" routeLength="435.19" waitSteps="0" rerouteNo="1" devices="tripinfo_154499_154499_420 hbefa_154499_154499_420" vType="DEFAULT_VEHTYPE" vaporized="">
        <emissions CO_abs="1105.256529" CO2_abs="95132.418555" HC_abs="28.417425" PMx_abs="10.193709" NOx_abs="194.193466" fuel_abs="37.927838"/>
    </tripinfo>
    <tripinfo id="171544_171544_426" depart="27000.00" departLane="187965762#1_0" departPos="5.10" departSpeed="0.00" departDelay="0.00" arrival="27040.00" arrivalLane="23800191#0_0" arrivalPos="143.94" arrivalSpeed="13.50" duration="40.00" routeLength="368.51" waitSteps="0" rerouteNo="1" devices="tripinfo_171544_171544_426 hbefa_171544_171544_426" vType="DEFAULT_VEHTYPE" vaporized="">
        <emissions CO_abs="624.760527" CO2_abs="69192.171428" HC_abs="19.455584" PMx_abs="6.407187" NOx_abs="133.623132" fuel_abs="27.585858"/>
    </tripinfo>
    <tripinfo id="84113_84113_390" depart="27000.00" departLane="150031205#0_0" departPos="5.10" departSpeed="0.00" departDelay="0.00" arrival="27040.00" arrivalLane="23471158#10_0" arrivalPos="144.68" arrivalSpeed="26.72" duration="40.00" routeLength="456.75" waitSteps="1" rerouteNo="1" devices="tripinfo_84113_84113_390 hbefa_84113_84113_390" vType="DEFAULT_VEHTYPE" vaporized="">
        <emissions CO_abs="2472.433653" CO2_abs="161238.249521" HC_abs="52.571042" PMx_abs="20.270376" NOx_abs="351.707785" fuel_abs="64.283240"/>
    </tripinfo>
    <tripinfo id="138122_138122_412" depart="27009.00" departLane="131651824_0" departPos="5.10" departSpeed="0.00" departDelay="9.00" arrival="27040.00" arrivalLane="130875842_0" arrivalPos="81.21" arrivalSpeed="13.75" duration="31.00" routeLength="334.70" waitSteps="0" rerouteNo="1" devices="tripinfo_138122_138122_412 hbefa_138122_138122_412" vType="DEFAULT_VEHTYPE" vaporized="">
        <emissions CO_abs="804.616468" CO2_abs="75550.615471" HC_abs="21.738895" PMx_abs="7.767805" NOx_abs="151.832591" fuel_abs="30.120876"/>
    </tripinfo>
    <tripinfo id="218769_218769_446" depart="27003.00" departLane="-55940134_0" departPos="5.10" departSpeed="0.00" departDelay="3.00" arrival="27041.00" arrivalLane="-144935692#1_1" arrivalPos="103.61" arrivalSpeed="12.59" duration="38.00" routeLength="447.77" waitSteps="0" rerouteNo="1" devices="tripinfo_218769_218769_446 hbefa_218769_218769_446" vType="DEFAULT_VEHTYPE" vaporized="">
        <emissions CO_abs="654.871891" CO2_abs="76696.431475" HC_abs="20.288718" PMx_abs="7.023290" NOx_abs="148.526152" fuel_abs="30.577703"/>
    </tripinfo>
    <tripinfo id="146563_146563_416" depart="27004.00" departLane="129833340#2_0" departPos="5.10" departSpeed="0.00" departDelay="4.00" arrival="27041.00" arrivalLane="154755096_0" arrivalPos="66.91" arrivalSpeed="13.33" duration="37.00" routeLength="420.47" waitSteps="0" rerouteNo="1" devices="tripinfo_146563_146563_416 hbefa_146563_146563_416" vType="DEFAULT_VEHTYPE" vaporized="">
        <emissions CO_abs="1121.646660" CO2_abs="94268.258337" HC_abs="28.195535" PMx_abs="10.235266" NOx_abs="193.794493" fuel_abs="37.583310"/>
    </tripinfo>
    <tripinfo id="211099_211099_442" depart="27013.00" departLane="166155712#0_0" departPos="5.10" departSpeed="0.00" departDelay="0.00" arrival="27041.00" arrivalLane="33469672_0" arrivalPos="142.78" arrivalSpeed="13.03" duration="28.00" routeLength="317.06" waitSteps="0" rerouteNo="1" devices="tripinfo_211099_211099_442 hbefa_211099_211099_442" vType="DEFAULT_VEHTYPE" vaporized="">
        <emissions CO_abs="801.369756" CO2_abs="69996.550358" HC_abs="20.624423" PMx_abs="7.547860" NOx_abs="142.969576" fuel_abs="27.906553"/>
    </tripinfo>
    <tripinfo id="197472_197472_436" depart="27006.00" departLane="23800191#2_0" departPos="5.10" departSpeed="0.00" departDelay="6.00" arrival="27041.00" arrivalLane="130875842_0" arrivalPos="81.21" arrivalSpeed="12.82" duration="35.00" routeLength="373.11" waitSteps="0" rerouteNo="1" devices="tripinfo_197472_197472_436 hbefa_197472_197472_436" vType="DEFAULT_VEHTYPE" vaporized="">
        <emissions CO_abs="796.795509" CO2_abs="75729.464790" HC_abs="22.024602" PMx_abs="7.568293" NOx_abs="151.081332" fuel_abs="30.192177"/>
    </tripinfo>
    <tripinfo id="104726_104726_398" depart="27000.00" departLane="23471158#5_0" departPos="5.10" departSpeed="0.00" departDelay="0.00" arrival="27042.00" arrivalLane="32856811#2_1" arrivalPos="144.91" arrivalSpeed="13.64" duration="42.00" routeLength="458.31" waitSteps="0" rerouteNo="1" devices="tripinfo_104726_104726_398 hbefa_104726_104726_398" vType="DEFAULT_VEHTYPE" vaporized="">
        <emissions CO_abs="1036.229062" CO2_abs="101375.691179" HC_abs="28.683555" PMx_abs="10.267197" NOx_abs="202.435849" fuel_abs="40.416941"/>
    </tripinfo>
    <tripinfo id="244420_244420_453" depart="27015.00" departLane="-165515969#3_0" departPos="5.10" departSpeed="0.00" departDelay="0.00" arrival="27042.00" arrivalLane="-165511531#0_0" arrivalPos="53.73" arrivalSpeed="13.55" duration="27.00" routeLength="345.81" waitSteps="0" rerouteNo="2" devices="tripinfo_244420_244420_453 hbefa_244420_244420_453" vType="DEFAULT_VEHTYPE" vaporized="">
        <emissions CO_abs="2060.838182" CO2_abs="131563.182234" HC_abs="43.139316" PMx_abs="16.137659" NOx_abs="287.333275" fuel_abs="52.452250"/>
    </tripinfo>
    <tripinfo id="184987_184987_431" depart="27000.00" departLane="-186463490#0_0" departPos="5.10" departSpeed="0.00" departDelay="0.00" arrival="27043.00" arrivalLane="-144935692#1_1" arrivalPos="103.61" arrivalSpeed="12.87" duration="43.00" routeLength="500.46" waitSteps="0" rerouteNo="1" devices="tripinfo_184987_184987_431 hbefa_184987_184987_431" vType="DEFAULT_VEHTYPE" vaporized="">
        <emissions CO_abs="741.815012" CO2_abs="89598.810368" HC_abs="23.550744" PMx_abs="7.976578" NOx_abs="172.606961" fuel_abs="35.721684"/>
    </tripinfo>
    <tripinfo id="245947_245947_454" depart="27016.00" departLane="-83823403#2_0" departPos="5.10" departSpeed="0.00" departDelay="0.00" arrival="27043.00" arrivalLane="23015533_0" arrivalPos="110.79" arrivalSpeed="13.54" duration="27.00" routeLength="290.56" waitSteps="0" rerouteNo="1" devices="tripinfo_245947_245947_454 hbefa_245947_245947_454" vType="DEFAULT_VEHTYPE" vaporized="">
        <emissions CO_abs="922.238920" CO2_abs="74689.411375" HC_abs="22.625596" PMx_abs="8.492407" NOx_abs="155.158751" fuel_abs="29.777524"/>
    </tripinfo>
    <tripinfo id="212327_212327_442" depart="27014.00" departLane="198147972_0" departPos="5.10" departSpeed="0.00" departDelay="0.00" arrival="27043.00" arrivalLane="4353628#1_0" arrivalPos="68.95" arrivalSpeed="13.11" duration="29.00" routeLength="339.08" waitSteps="0" rerouteNo="1" devices="tripinfo_212327_212327_442 hbefa_212327_212327_442" vType="DEFAULT_VEHTYPE" vaporized="">
        <emissions CO_abs="597.117597" CO2_abs="61812.429673" HC_abs="17.133993" PMx_abs="5.981745" NOx_abs="122.097034" fuel_abs="24.643674"/>
    </tripinfo>
    <tripinfo id="224931_224931_449" depart="27026.00" departLane="-28523795_0" departPos="5.10" departSpeed="0.00" departDelay="0.00" arrival="27044.00" arrivalLane="-28523795_0" arrivalPos="192.02" arrivalSpeed="13.44" duration="18.00" routeLength="186.92" waitSteps="0" rerouteNo="1" devices="tripinfo_224931_224931_449 hbefa_224931_224931_449" vType="DEFAULT_VEHTYPE" vaporized="">
        <emissions CO_abs="540.878103" CO2_abs="42989.520566" HC_abs="13.432938" PMx_abs="4.693602" NOx_abs="88.697057" fuel_abs="17.139261"/>
    </tripinfo>
    <tripinfo id="192246_192246_435" depart="27018.00" departLane="2511537#2_0" departPos="5.10" departSpeed="0.00" departDelay="18.00" arrival="27044.00" arrivalLane="2511537#2_0" arrivalPos="191.15" arrivalSpeed="7.10" duration="26.00" routeLength="186.05" waitSteps="0" rerouteNo="1" devices="tripinfo_192246_192246_435 hbefa_192246_192246_435" vType="DEFAULT_VEHTYPE" vaporized="">
        <emissions CO_abs="220.751168" CO2_abs="30172.518440" HC_abs="8.564388" PMx_abs="2.479573" NOx_abs="55.272018" fuel_abs="12.029316"/>
    </tripinfo>
    <tripinfo id="95606_95606_394" depart="27000.00" departLane="8225148_0" departPos="5.10" departSpeed="0.00" departDelay="0.00" arrival="27045.00" arrivalLane="145261451_0" arrivalPos="86.92" arrivalSpeed="12.73" duration="45.00" routeLength="515.94" waitSteps="0" rerouteNo="1" devices="tripinfo_95606_95606_394 hbefa_95606_95606_394" vType="DEFAULT_VEHTYPE" vaporized="">
        <emissions CO_abs="1345.212200" CO2_abs="112371.170876" HC_abs="33.451818" PMx_abs="12.473339" NOx_abs="231.996053" fuel_abs="44.800665"/>
    </tripinfo>
    <tripinfo id="138230_138230_412" depart="27001.00" departLane="129833340#2_0" departPos="5.10" departSpeed="0.00" departDelay="1.00" arrival="27045.00" arrivalLane="150039002#2_0" arrivalPos="249.40" arrivalSpeed="13.02" duration="44.00" routeLength="596.79" waitSteps="0" rerouteNo="0" devices="tripinfo_138230_138230_412 hbefa_138230_138230_412" vType="DEFAULT_VEHTYPE" vaporized="">
        <emissions CO_abs="2028.203536" CO2_abs="152005.097945" HC_abs="46.086976" PMx_abs="17.319613" NOx_abs="321.146245" fuel_abs="60.602138"/>
    </tripinfo>
    <tripinfo id="73652_73652_385" depart="27003.00" departLane="-23471151#0_0" departPos="5.10" departSpeed="0.00" departDelay="3.00" arrival="27046.00" arrivalLane="32856811#2_0" arrivalPos="144.91" arrivalSpeed="13.21" duration="43.00" routeLength="736.82" waitSteps="0" rerouteNo="0" devices="tripinfo_73652_73652_385 hbefa_73652_73652_385" vType="DEFAULT_VEHTYPE" vaporized="">
        <emissions CO_abs="3042.414253" CO2_abs="193029.868684" HC_abs="61.345077" PMx_abs="22.942663" NOx_abs="421.686963" fuel_abs="76.958168"/>
    </tripinfo>
    <tripinfo id="244003_244003_453" depart="27029.00" departLane="-28523795_0" departPos="5.10" departSpeed="0.00" departDelay="0.00" arrival="27046.00" arrivalLane="-28523795_0" arrivalPos="192.02" arrivalSpeed="13.78" duration="17.00" routeLength="186.92" waitSteps="0" rerouteNo="1" devices="tripinfo_244003_244003_453 hbefa_244003_244003_453" vType="DEFAULT_VEHTYPE" vaporized="">
        <emissions CO_abs="454.756024" CO2_abs="46785.114677" HC_abs="13.047129" PMx_abs="4.600931" NOx_abs="92.475805" fuel_abs="18.652512"/>
    </tripinfo>
    <tripinfo id="221885_221885_448" depart="27017.00" departLane="-175607927#0_0" departPos="5.10" departSpeed="0.00" departDelay="0.00" arrival="27046.00" arrivalLane="-29214406_0" arrivalPos="179.38" arrivalSpeed="13.44" duration="29.00" routeLength="317.06" waitSteps="0" rerouteNo="1" devices="tripinfo_221885_221885_448 hbefa_221885_221885_448" vType="DEFAULT_VEHTYPE" vaporized="">