<?xml version="1.0" encoding="UTF-8"?>

<!-- generated on Mon Feb 10 17:20:21 2014 by SUMO sumo Version 0.19.0
<?xml version="1.0" encoding="UTF-8"?>

<configuration xmlns:xsi="http://www.w3.org/2001/XMLSchema-instance" xsi:noNamespaceSchemaLocation="http://sumo-sim.org/xsd/sumoConfiguration.xsd">

    <input>
        <net-file value="data/map.net.xml"/>
        <route-files value="data/map.rou.xml"/>
    </input>

    <output>
        <tripinfo-output value="data/maptripinfoWO.out.xml"/>
        <save-state.prefix value="data/state"/>
    </output>

    <time>
        <begin value="27000"/>
        <end value="27900"/>
    </time>

    <processing>
        <route-steps value="200"/>
        <scale value="1"/>
        <time-to-teleport value="300"/>
        <lanechange.allow-swap value="true"/>
    </processing>

    <report>
        <verbose value="true"/>
        <no-warnings value="false"/>
        <no-step-log value="true"/>
    </report>

    <traci_server>
        <remote-port value="8813"/>
    </traci_server>

</configuration>
-->

<tripinfos>
    <tripinfo id="210202_210202_441" depart="27000.00" departLane="69366484#2_0" departPos="5.10" departSpeed="0.00" departDelay="0.00" arrival="27004.00" arrivalLane="69366484#3_1" arrivalPos="10.85" arrivalSpeed="7.90" duration="4.00" routeLength="14.36" waitSteps="0" rerouteNo="0" devices="tripinfo_210202_210202_441" vType="DEFAULT_VEHTYPE" vaporized=""/>
    <tripinfo id="190372_190372_434" depart="27000.00" departLane="36590979#0-AddedOffRampEdge_0" departPos="5.10" departSpeed="0.00" departDelay="0.00" arrival="27010.00" arrivalLane="36590979#0-AddedOffRampEdge_0" arrivalPos="103.44" arrivalSpeed="20.37" duration="10.00" routeLength="98.34" waitSteps="0" rerouteNo="0" devices="tripinfo_190372_190372_434" vType="DEFAULT_VEHTYPE" vaporized=""/>
    <tripinfo id="170065_170065_426" depart="27000.00" departLane="186646384#1_0" departPos="5.10" departSpeed="0.00" departDelay="0.00" arrival="27010.00" arrivalLane="186646384#1_0" arrivalPos="67.85" arrivalSpeed="8.04" duration="10.00" routeLength="62.75" waitSteps="0" rerouteNo="0" devices="tripinfo_170065_170065_426" vType="DEFAULT_VEHTYPE" vaporized=""/>
    <tripinfo id="209908_209908_441" depart="27000.00" departLane="186463490#1_0" departPos="5.10" departSpeed="0.00" departDelay="0.00" arrival="27012.00" arrivalLane="186463490#1_0" arrivalPos="122.40" arrivalSpeed="13.27" duration="12.00" routeLength="117.30" waitSteps="0" rerouteNo="0" devices="tripinfo_209908_209908_441" vType="DEFAULT_VEHTYPE" vaporized=""/>
    <tripinfo id="206552_206552_440" depart="27000.00" departLane="23471158#9_0" departPos="5.10" departSpeed="0.00" departDelay="0.00" arrival="27015.00" arrivalLane="23471158#9_0" arrivalPos="213.75" arrivalSpeed="26.61" duration="15.00" routeLength="208.65" waitSteps="0" rerouteNo="0" devices="tripinfo_206552_206552_440" vType="DEFAULT_VEHTYPE" vaporized=""/>
    <tripinfo id="115764_115764_403" depart="27000.00" departLane="23471158#6_0" departPos="5.10" departSpeed="0.00" departDelay="0.00" arrival="27019.00" arrivalLane="23471158#9_0" arrivalPos="213.75" arrivalSpeed="27.52" duration="19.00" routeLength="308.43" waitSteps="0" rerouteNo="0" devices="tripinfo_115764_115764_403" vType="DEFAULT_VEHTYPE" vaporized=""/>
    <tripinfo id="207700_207700_441" depart="27000.00" departLane="85470309#4_0" departPos="5.10" departSpeed="0.00" departDelay="0.00" arrival="27019.00" arrivalLane="85470309#4_0" arrivalPos="208.83" arrivalSpeed="13.02" duration="19.00" routeLength="203.73" waitSteps="0" rerouteNo="0" devices="tripinfo_207700_207700_441" vType="DEFAULT_VEHTYPE" vaporized=""/>
    <tripinfo id="119651_119651_405" depart="27006.00" departLane="154743410#1_0" departPos="5.10" departSpeed="0.00" departDelay="6.00" arrival="27022.00" arrivalLane="9207798_0" arrivalPos="76.33" arrivalSpeed="26.77" duration="16.00" routeLength="298.40" waitSteps="0" rerouteNo="0" devices="tripinfo_119651_119651_405" vType="DEFAULT_VEHTYPE" vaporized=""/>
    <tripinfo id="130918_130918_409" depart="27000.00" departLane="145575263_0" departPos="5.10" departSpeed="0.00" departDelay="0.00" arrival="27022.00" arrivalLane="145575263_0" arrivalPos="260.32" arrivalSpeed="13.81" duration="22.00" routeLength="255.22" waitSteps="0" rerouteNo="0" devices="tripinfo_130918_130918_409" vType="DEFAULT_VEHTYPE" vaporized=""/>
    <tripinfo id="168627_168627_425" depart="27003.00" departLane="23471158#6_0" departPos="5.10" departSpeed="0.00" departDelay="3.00" arrival="27022.00" arrivalLane="23471158#9_0" arrivalPos="213.75" arrivalSpeed="27.22" duration="19.00" routeLength="308.43" waitSteps="0" rerouteNo="0" devices="tripinfo_168627_168627_425" vType="DEFAULT_VEHTYPE" vaporized=""/>
    <tripinfo id="238575_238575_451" depart="27000.00" departLane="154755073#3_0" departPos="5.10" departSpeed="0.00" departDelay="0.00" arrival="27023.00" arrivalLane="154755100#1_0" arrivalPos="97.57" arrivalSpeed="13.32" duration="23.00" routeLength="194.99" waitSteps="0" rerouteNo="0" devices="tripinfo_238575_238575_451" vType="DEFAULT_VEHTYPE" vaporized=""/>
    <tripinfo id="212344_212344_442" depart="27006.00" departLane="23471158#6_0" departPos="5.10" departSpeed="0.00" departDelay="6.00" arrival="27024.00" arrivalLane="23471158#9_0" arrivalPos="213.75" arrivalSpeed="27.34" duration="18.00" routeLength="308.43" waitSteps="1" rerouteNo="0" devices="tripinfo_212344_212344_442" vType="DEFAULT_VEHTYPE" vaporized=""/>
    <tripinfo id="212203_212203_442" depart="27000.00" departLane="-8225138_0" departPos="5.10" departSpeed="0.00" departDelay="0.00" arrival="27024.00" arrivalLane="-22873524#2_0" arrivalPos="64.55" arrivalSpeed="7.52" duration="24.00" routeLength="184.76" waitSteps="0" rerouteNo="0" devices="tripinfo_212203_212203_442" vType="DEFAULT_VEHTYPE" vaporized=""/>
    <tripinfo id="136315_136315_411" depart="27003.00" departLane="145575263_0" departPos="5.10" departSpeed="0.00" departDelay="3.00" arrival="27026.00" arrivalLane="145575263_0" arrivalPos="260.32" arrivalSpeed="13.24" duration="23.00" routeLength="255.22" waitSteps="0" rerouteNo="0" devices="tripinfo_136315_136315_411" vType="DEFAULT_VEHTYPE" vaporized=""/>
    <tripinfo id="228569_228569_450" depart="27000.00" departLane="26811074_0" departPos="5.10" departSpeed="0.00" departDelay="0.00" arrival="27026.00" arrivalLane="24900481#0_0" arrivalPos="160.62" arrivalSpeed="13.50" duration="26.00" routeLength="249.00" waitSteps="0" rerouteNo="0" devices="tripinfo_228569_228569_450" vType="DEFAULT_VEHTYPE" vaporized=""/>
    <tripinfo id="211849_211849_442" depart="27000.00" departLane="-8225144#3_0" departPos="5.10" departSpeed="0.00" departDelay="0.00" arrival="27028.00" arrivalLane="23015778_0" arrivalPos="93.11" arrivalSpeed="12.88" duration="28.00" routeLength="296.73" waitSteps="0" rerouteNo="0" devices="tripinfo_211849_211849_442" vType="DEFAULT_VEHTYPE" vaporized=""/>
    <tripinfo id="163396_163396_422" depart="27006.00" departLane="145575263_0" departPos="5.10" departSpeed="0.00" departDelay="6.00" arrival="27029.00" arrivalLane="145575263_0" arrivalPos="260.32" arrivalSpeed="13.53" duration="23.00" routeLength="255.22" waitSteps="0" rerouteNo="0" devices="tripinfo_163396_163396_422" vType="DEFAULT_VEHTYPE" vaporized=""/>
    <tripinfo id="127420_127420_407" depart="27002.00" departLane="36454807#3_0" departPos="5.10" departSpeed="0.00" departDelay="2.00" arrival="27029.00" arrivalLane="23471158#9_0" arrivalPos="213.75" arrivalSpeed="27.49" duration="27.00" routeLength="393.11" waitSteps="0" rerouteNo="0" devices="tripinfo_127420_127420_407" vType="DEFAULT_VEHTYPE" vaporized=""/>
    <tripinfo id="213180_213180_443" depart="27009.00" departLane="145575263_0" departPos="5.10" departSpeed="0.00" departDelay="9.00" arrival="27032.00" arrivalLane="145575263_0" arrivalPos="260.32" arrivalSpeed="13.21" duration="23.00" routeLength="255.22" waitSteps="0" rerouteNo="0" devices="tripinfo_213180_213180_443" vType="DEFAULT_VEHTYPE" vaporized=""/>
    <tripinfo id="138675_138675_413" depart="27007.00" departLane="36454807#3_0" departPos="5.10" departSpeed="0.00" departDelay="7.00" arrival="27033.00" arrivalLane="23471158#9_0" arrivalPos="213.75" arrivalSpeed="27.19" duration="26.00" routeLength="393.11" waitSteps="0" rerouteNo="0" devices="tripinfo_138675_138675_413" vType="DEFAULT_VEHTYPE" vaporized=""/>
    <tripinfo id="104291_104291_397" depart="27000.00" departLane="154743410#2_0" departPos="5.10" departSpeed="0.00" departDelay="0.00" arrival="27035.00" arrivalLane="9207798_1" arrivalPos="76.33" arrivalSpeed="17.34" duration="35.00" routeLength="167.61" waitSteps="12" rerouteNo="0" devices="tripinfo_104291_104291_397" vType="DEFAULT_VEHTYPE" vaporized=""/>
    <tripinfo id="240507_240507_452" depart="27017.00" departLane="164158185#1_0" departPos="5.10" departSpeed="0.00" departDelay="0.00" arrival="27035.00" arrivalLane="164158185#1_0" arrivalPos="208.62" arrivalSpeed="13.65" duration="18.00" routeLength="203.52" waitSteps="0" rerouteNo="0" devices="tripinfo_240507_240507_452" vType="DEFAULT_VEHTYPE" vaporized=""/>
    <tripinfo id="227902_227902_450" depart="27012.00" departLane="145575263_0" departPos="5.10" departSpeed="0.00" departDelay="12.00" arrival="27035.00" arrivalLane="145575263_0" arrivalPos="260.32" arrivalSpeed="13.19" duration="23.00" routeLength="255.22" waitSteps="0" rerouteNo="0" devices="tripinfo_227902_227902_450" vType="DEFAULT_VEHTYPE" vaporized=""/>
    <tripinfo id="190904_190904_435" depart="27000.00" departLane="4400207#0_0" departPos="5.10" departSpeed="0.00" departDelay="0.00" arrival="27037.00" arrivalLane="4400203#2_0" arrivalPos="120.47" arrivalSpeed="8.26" duration="37.00" routeLength="272.79" waitSteps="0" rerouteNo="0" devices="tripinfo_190904_190904_435" vType="DEFAULT_VEHTYPE" vaporized=""/>
    <tripinfo id="227966_227966_450" depart="27000.00" departLane="150039002#2_0" departPos="5.10" departSpeed="0.00" departDelay="0.00" arrival="27037.00" arrivalLane="36590979#4_0" arrivalPos="41.97" arrivalSpeed="20.98" duration="37.00" routeLength="538.03" waitSteps="0" rerouteNo="0" devices="tripinfo_227966_227966_450" vType="DEFAULT_VEHTYPE" vaporized=""/>
    <tripinfo id="237641_237641_451" depart="27000.00" departLane="69366483_0" departPos="5.10" departSpeed="0.00" departDelay="0.00" arrival="27040.00" arrivalLane="23493260#4_0" arrivalPos="126.60" arrivalSpeed="12.64" duration="40.00" routeLength="381.70" waitSteps="0" rerouteNo="0" devices="tripinfo_237641_237641_451" vType="DEFAULT_VEHTYPE" vaporized=""/>
    <tripinfo id="195349_195349_436" depart="27000.00" departLane="-27602630#1_0" departPos="5.10" departSpeed="0.00" departDelay="0.00" arrival="27040.00" arrivalLane="23471158#9_0" arrivalPos="213.75" arrivalSpeed="27.45" duration="40.00" routeLength="890.41" waitSteps="0" rerouteNo="0" devices="tripinfo_195349_195349_436" vType="DEFAULT_VEHTYPE" vaporized=""/>
    <tripinfo id="245704_245704_454" depart="27003.00" departLane="150039002#2_0" departPos="5.10" departSpeed="0.00" departDelay="3.00" arrival="27040.00" arrivalLane="36590979#4_0" arrivalPos="41.97" arrivalSpeed="21.07" duration="37.00" routeLength="538.03" waitSteps="0" rerouteNo="0" devices="tripinfo_245704_245704_454" vType="DEFAULT_VEHTYPE" vaporized=""/>
    <tripinfo id="221019_221019_448" depart="27028.00" departLane="151057637#2_0" departPos="5.10" departSpeed="0.00" departDelay="1.00" arrival="27042.00" arrivalLane="9207798_0" arrivalPos="76.33" arrivalSpeed="26.03" duration="14.00" routeLength="193.79" waitSteps="0" rerouteNo="0" devices="tripinfo_221019_221019_448" vType="DEFAULT_VEHTYPE" vaporized=""/>
    <tripinfo id="232860_232860_451" depart="27023.00" departLane="164158185#1_0" departPos="5.10" departSpeed="0.00" departDelay="0.00" arrival="27042.00" arrivalLane="164158185#1_0" arrivalPos="208.62" arrivalSpeed="13.56" duration="19.00" routeLength="203.52" waitSteps="0" rerouteNo="0" devices="tripinfo_232860_232860_451" vType="DEFAULT_VEHTYPE" vaporized=""/>
    <tripinfo id="106662_106662_399" depart="27000.00" departLane="28542995#4_0" departPos="5.10" departSpeed="0.00" departDelay="0.00" arrival="27042.00" arrivalLane="-50061433_0" arrivalPos="60.25" arrivalSpeed="12.91" duration="42.00" routeLength="472.50" waitSteps="0" rerouteNo="0" devices="tripinfo_106662_106662_399" vType="DEFAULT_VEHTYPE" vaporized=""/>
    <tripinfo id="248075_248075_455" depart="27029.00" departLane="-154755100#0_0" departPos="5.10" departSpeed="0.00" departDelay="0.00" arrival="27044.00" arrivalLane="-154755100#0_0" arrivalPos="171.42" arrivalSpeed="13.56" duration="15.00" routeLength="166.32" waitSteps="0" rerouteNo="0" devices="tripinfo_248075_248075_455" vType="DEFAULT_VEHTYPE" vaporized=""/>
    <tripinfo id="203915_203915_439" depart="27006.00" departLane="-37866521#1_0" departPos="5.10" departSpeed="0.00" departDelay="0.00" arrival="27045.00" arrivalLane="23015529#0_0" arrivalPos="184.87" arrivalSpeed="12.77" duration="39.00" routeLength="416.64" waitSteps="0" rerouteNo="0" devices="tripinfo_203915_203915_439" vType="DEFAULT_VEHTYPE" vaporized=""/>
    <tripinfo id="218423_218423_446" depart="27000.00" departLane="36564599_0" departPos="5.10" departSpeed="0.00" departDelay="0.00" arrival="27046.00" arrivalLane="36564599_0" arrivalPos="101.75" arrivalSpeed="1.96" duration="46.00" routeLength="96.65" waitSteps="0" rerouteNo="0" devices="tripinfo_218423_218423_446" vType="DEFAULT_VEHTYPE" vaporized=""/>
    <tripinfo id="191576_191576_435" depart="27000.00" departLane="150031207#8_0" departPos="5.10" departSpeed="0.00" departDelay="0.00" arrival="27047.00" arrivalLane="23471158#9_0" arrivalPos="213.75" arrivalSpeed="27.43" duration="47.00" routeLength="960.67" waitSteps="0" rerouteNo="0" devices="tripinfo_191576_191576_435" vType="DEFAULT_VEHTYPE" vaporized=""/>
    <tripinfo id="196017_196017_436" depart="27009.00" departLane="32064260#0_0" departPos="5.10" departSpeed="0.00" departDelay="0.00" arrival="27049.00" arrivalLane="-32064260#1_1" arrivalPos="89.54" arrivalSpeed="13.05" duration="40.00" routeLength="173.98" waitSteps="16" rerouteNo="0" devices="tripinfo_196017_196017_436" vType="DEFAULT_VEHTYPE" vaporized=""/>
    <tripinfo id="209747_209747_441" depart="27033.00" departLane="4400462#1_0" departPos="5.10" departSpeed="0.00" departDelay="0.00" arrival="27050.00" arrivalLane="-32930555#2_0" arrivalPos="90.79" arrivalSpeed="13.63" duration="17.00" routeLength="147.47" waitSteps="0" rerouteNo="0" devices="tripinfo_209747_209747_441" vType="DEFAULT_VEHTYPE" vaporized=""/>
    <tripinfo id="223230_223230_449" depart="27016.00" departLane="32064260#0_0" departPos="5.10" departSpeed="0.00" departDelay="0.00" arrival="27052.00" arrivalLane="32064260#3_0" arrivalPos="126.56" arrivalSpeed="12.81" duration="36.00" routeLength="211.00" waitSteps="9" rerouteNo="0" devices="tripinfo_223230_223230_449" vType="DEFAULT_VEHTYPE" vaporized=""/>
    <tripinfo id="236143_236143_451" depart="27022.00" departLane="-175607927#0_0" departPos="5.10" departSpeed="0.00" departDelay="0.00" arrival="27052.00" arrivalLane="-29214406_0" arrivalPos="179.38" arrivalSpeed="12.65" duration="30.00" routeLength="317.06" waitSteps="0" rerouteNo="0" devices="tripinfo_236143_236143_451" vType="DEFAULT_VEHTYPE" vaporized=""/>
    <tripinfo id="106411_106411_399" depart="27002.00" departLane="154743410#2_0" departPos="5.10" departSpeed="0.00" departDelay="2.00" arrival="27053.00" arrivalLane="9207798_1" arrivalPos="76.33" arrivalSpeed="17.31" duration="51.00" routeLength="167.61" waitSteps="24" rerouteNo="0" devices="tripinfo_106411_106411_399" vType="DEFAULT_VEHTYPE" vaporized=""/>
    <tripinfo id="192585_192585_435" depart="27019.00" departLane="32064260#0_0" departPos="5.10" departSpeed="0.00" departDelay="0.00" arrival="27054.00" arrivalLane="32064260#3_1" arrivalPos="126.56" arrivalSpeed="12.65" duration="35.00" routeLength="211.00" waitSteps="8" rerouteNo="0" devices="tripinfo_192585_192585_435" vType="DEFAULT_VEHTYPE" vaporized=""/>
    <tripinfo id="224367_224367_449" depart="27031.00" departLane="32064260#0_0" departPos="5.10" departSpeed="0.00" departDelay="0.00" arrival="27054.00" arrivalLane="32064260#3_0" arrivalPos="126.56" arrivalSpeed="13.07" duration="23.00" routeLength="211.00" waitSteps="0" rerouteNo="0" devices="tripinfo_224367_224367_449" vType="DEFAULT_VEHTYPE" vaporized=""/>
    <tripinfo id="225422_225422_449" depart="27003.00" departLane="31694310#0_0" departPos="5.10" departSpeed="0.00" departDelay="0.00" arrival="27056.00" arrivalLane="4353628#1_0" arrivalPos="68.95" arrivalSpeed="13.46" duration="53.00" routeLength="611.35" waitSteps="0" rerouteNo="0" devices="tripinfo_225422_225422_449" vType="DEFAULT_VEHTYPE" vaporized=""/>
    <tripinfo id="215103_215103_445" depart="27038.00" departLane="32064260#0_0" departPos="5.10" departSpeed="0.00" departDelay="0.00" arrival="27057.00" arrivalLane="32064260#3_0" arrivalPos="126.56" arrivalSpeed="12.91" duration="19.00" routeLength="211.00" waitSteps="0" rerouteNo="0" devices="tripinfo_215103_215103_445" vType="DEFAULT_VEHTYPE" vaporized=""/>
    <tripinfo id="193061_193061_435" depart="27026.00" departLane="23799644_0" departPos="5.10" departSpeed="0.00" departDelay="0.00" arrival="27057.00" arrivalLane="64487982#4_0" arrivalPos="68.97" arrivalSpeed="7.67" duration="31.00" routeLength="255.49" waitSteps="0" rerouteNo="0" devices="tripinfo_193061_193061_435" vType="DEFAULT_VEHTYPE" vaporized=""/>
    <tripinfo id="224533_224533_449" depart="27036.00" departLane="31694310#0_0" departPos="5.10" departSpeed="0.00" departDelay="0.00" arrival="27061.00" arrivalLane="51534019#0_0" arrivalPos="140.71" arrivalSpeed="13.09" duration="25.00" routeLength="324.57" waitSteps="0" rerouteNo="0" devices="tripinfo_224533_224533_449" vType="DEFAULT_VEHTYPE" vaporized=""/>
    <tripinfo id="124385_124385_406" depart="27000.00" departLane="36454807#3_0" departPos="5.10" departSpeed="0.00" departDelay="0.00" arrival="27064.00" arrivalLane="145474196#1_1" arrivalPos="94.12" arrivalSpeed="12.85" duration="64.00" routeLength="270.22" waitSteps="31" rerouteNo="0" devices="tripinfo_124385_124385_406" vType="DEFAULT_VEHTYPE" vaporized=""/>
    <tripinfo id="230297_230297_450" depart="27022.00" departLane="4390554#0_0" departPos="5.10" departSpeed="0.00" departDelay="0.00" arrival="27064.00" arrivalLane="27290012#0_0" arrivalPos="110.30" arrivalSpeed="13.69" duration="42.00" routeLength="347.32" waitSteps="0" rerouteNo="0" devices="tripinfo_230297_230297_450" vType="DEFAULT_VEHTYPE" vaporized=""/>
    <tripinfo id="217173_217173_446" depart="27046.00" departLane="-32064260#4_0" departPos="5.10" departSpeed="0.00" departDelay="0.00" arrival="27065.00" arrivalLane="-32064260#1_0" arrivalPos="89.54" arrivalSpeed="13.71" duration="19.00" routeLength="211.00" waitSteps="0" rerouteNo="0" devices="tripinfo_217173_217173_446" vType="DEFAULT_VEHTYPE" vaporized=""/>
    <tripinfo id="230824_230824_450" depart="27038.00" departLane="-175607927#0_0" departPos="5.10" departSpeed="0.00" departDelay="0.00" arrival="27069.00" arrivalLane="-29214406_0" arrivalPos="179.38" arrivalSpeed="13.06" duration="31.00" routeLength="317.06" waitSteps="0" rerouteNo="0" devices="tripinfo_230824_230824_450" vType="DEFAULT_VEHTYPE" vaporized=""/>
    <tripinfo id="207573_207573_441" depart="27034.00" departLane="4400306#0_0" departPos="5.10" departSpeed="0.00" departDelay="0.00" arrival="27071.00" arrivalLane="40236119_0" arrivalPos="102.15" arrivalSpeed="13.30" duration="37.00" routeLength="326.62" waitSteps="0" rerouteNo="0" devices="tripinfo_207573_207573_441" vType="DEFAULT_VEHTYPE" vaporized=""/>
    <tripinfo id="242144_242144_452" depart="27015.00" departLane="129833339#1_0" departPos="5.10" departSpeed="0.00" departDelay="0.00" arrival="27072.00" arrivalLane="31691655_0" arrivalPos="128.29" arrivalSpeed="25.87" duration="57.00" routeLength="738.29" waitSteps="0" rerouteNo="0" devices="tripinfo_242144_242144_452" vType="DEFAULT_VEHTYPE" vaporized=""/>
    <tripinfo id="242822_242822_452" depart="27056.00" departLane="164158185#1_0" departPos="5.10" departSpeed="0.00" departDelay="0.00" arrival="27075.00" arrivalLane="164158185#1_0" arrivalPos="208.62" arrivalSpeed="13.28" duration="19.00" routeLength="203.52" waitSteps="0" rerouteNo="0" devices="tripinfo_242822_242822_452" vType="DEFAULT_VEHTYPE" vaporized=""/>
    <tripinfo id="160495_160495_421" depart="27000.00" departLane="23799989#0_0" departPos="5.10" departSpeed="0.00" departDelay="0.00" arrival="27075.00" arrivalLane="29206900_0" arrivalPos="79.62" arrivalSpeed="7.85" duration="75.00" routeLength="527.51" waitSteps="0" rerouteNo="0" devices="tripinfo_160495_160495_421" vType="DEFAULT_VEHTYPE" vaporized=""/>
    <tripinfo id="210016_210016_441" depart="27055.00" departLane="8225144#1_0" departPos="5.10" departSpeed="0.00" departDelay="0.00" arrival="27075.00" arrivalLane="23015778_0" arrivalPos="93.11" arrivalSpeed="12.97" duration="20.00" routeLength="223.78" waitSteps="0" rerouteNo="0" devices="tripinfo_210016_210016_441" vType="DEFAULT_VEHTYPE" vaporized=""/>
    <tripinfo id="121020_121020_405" depart="27013.00" departLane="154743410#2_0" departPos="5.10" departSpeed="0.00" departDelay="13.00" arrival="27076.00" arrivalLane="9207798_1" arrivalPos="76.33" arrivalSpeed="17.94" duration="63.00" routeLength="167.61" waitSteps="39" rerouteNo="0" devices="tripinfo_121020_121020_405" vType="DEFAULT_VEHTYPE" vaporized=""/>
    <tripinfo id="215923_215923_445" depart="27001.00" departLane="-37866521#1_0" departPos="5.10" departSpeed="0.00" departDelay="0.00" arrival="27076.00" arrivalLane="160971552_0" arrivalPos="96.86" arrivalSpeed="26.67" duration="75.00" routeLength="1025.19" waitSteps="0" rerouteNo="0" devices="tripinfo_215923_215923_445" vType="DEFAULT_VEHTYPE" vaporized=""/>
    <tripinfo id="210624_210624_442" depart="27059.00" departLane="32064260#0_0" departPos="5.10" departSpeed="0.00" departDelay="0.00" arrival="27078.00" arrivalLane="32064260#3_0" arrivalPos="126.56" arrivalSpeed="13.33" duration="19.00" routeLength="211.00" waitSteps="0" rerouteNo="0" devices="tripinfo_210624_210624_442" vType="DEFAULT_VEHTYPE" vaporized=""/>
    <tripinfo id="221849_221849_448" depart="27023.00" departLane="28557537#1_0" departPos="5.10" departSpeed="0.00" departDelay="1.00" arrival="27079.00" arrivalLane="28542995#0_0" arrivalPos="102.48" arrivalSpeed="12.82" duration="56.00" routeLength="1057.83" waitSteps="0" rerouteNo="0" devices="tripinfo_221849_221849_448" vType="DEFAULT_VEHTYPE" vaporized=""/>
    <tripinfo id="152783_152783_419" depart="27000.00" departLane="28557537#6_0" departPos="5.10" departSpeed="0.00" departDelay="0.00" arrival="27080.00" arrivalLane="-8225138_0" arrivalPos="91.73" arrivalSpeed="12.89" duration="80.00" routeLength="1109.08" waitSteps="0" rerouteNo="0" devices="tripinfo_152783_152783_419" vType="DEFAULT_VEHTYPE" vaporized=""/>
    <tripinfo id="190306_190306_434" depart="27003.00" departLane="28557537#6_0" departPos="5.10" departSpeed="0.00" departDelay="3.00" arrival="27081.00" arrivalLane="23493260#7_1" arrivalPos="59.96" arrivalSpeed="13.51" duration="78.00" routeLength="1126.12" waitSteps="0" rerouteNo="0" devices="tripinfo_190306_190306_434" vType="DEFAULT_VEHTYPE" vaporized=""/>
    <tripinfo id="163488_163488_422" depart="27000.00" departLane="145474195#0_0" departPos="5.10" departSpeed="0.00" departDelay="0.00" arrival="27082.00" arrivalLane="145575263_1" arrivalPos="260.32" arrivalSpeed="13.70" duration="82.00" routeLength="582.15" waitSteps="24" rerouteNo="0" devices="tripinfo_163488_163488_422" vType="DEFAULT_VEHTYPE" vaporized=""/>
    <tripinfo id="237142_237142_451" depart="27028.00" departLane="48405468#0_0" departPos="5.10" departSpeed="0.00" departDelay="6.00" arrival="27083.00" arrivalLane="177147101#3_0" arrivalPos="50.48" arrivalSpeed="7.53" duration="55.00" routeLength="385.53" waitSteps="0" rerouteNo="0" devices="tripinfo_237142_237142_451" vType="DEFAULT_VEHTYPE" vaporized=""/>
    <tripinfo id="214634_214634_444" depart="27072.00" departLane="-6186578_0" departPos="5.10" departSpeed="0.00" departDelay="0.00" arrival="27084.00" arrivalLane="-6186578_0" arrivalPos="116.31" arrivalSpeed="13.16" duration="12.00" routeLength="111.21" waitSteps="0" rerouteNo="0" devices="tripinfo_214634_214634_444" vType="DEFAULT_VEHTYPE" vaporized=""/>
    <tripinfo id="203320_203320_439" depart="27000.00" departLane="150031205#0_0" departPos="5.10" departSpeed="0.00" departDelay="0.00" arrival="27085.00" arrivalLane="23493260#7_1" arrivalPos="59.96" arrivalSpeed="13.48" duration="85.00" routeLength="1232.18" waitSteps="0" rerouteNo="0" devices="tripinfo_203320_203320_439" vType="DEFAULT_VEHTYPE" vaporized=""/>
    <tripinfo id="230071_230071_450" depart="27014.00" departLane="28557537#1_0" departPos="5.10" departSpeed="0.00" departDelay="1.00" arrival="27085.00" arrivalLane="145575263_1" arrivalPos="260.32" arrivalSpeed="12.59" duration="71.00" routeLength="911.63" waitSteps="0" rerouteNo="0" devices="tripinfo_230071_230071_450" vType="DEFAULT_VEHTYPE" vaporized=""/>
    <tripinfo id="203088_203088_439" depart="27006.00" departLane="28557537#6_0" departPos="5.10" departSpeed="0.00" departDelay="6.00" arrival="27085.00" arrivalLane="23493177#0_2" arrivalPos="166.52" arrivalSpeed="8.01" duration="79.00" routeLength="1044.81" waitSteps="0" rerouteNo="0" devices="tripinfo_203088_203088_439" vType="DEFAULT_VEHTYPE" vaporized=""/>
    <tripinfo id="217731_217731_446" depart="27011.00" departLane="28557537#1_0" departPos="5.10" departSpeed="0.00" departDelay="1.00" arrival="27086.00" arrivalLane="130659365_0" arrivalPos="223.21" arrivalSpeed="12.60" duration="75.00" routeLength="1120.37" waitSteps="0" rerouteNo="0" devices="tripinfo_217731_217731_446" vType="DEFAULT_VEHTYPE" vaporized=""/>
    <tripinfo id="232868_232868_451" depart="27002.00" departLane="28557537#1_0" departPos="5.10" departSpeed="0.00" departDelay="0.00" arrival="27088.00" arrivalLane="23493260#7_1" arrivalPos="59.96" arrivalSpeed="12.83" duration="86.00" routeLength="1455.60" waitSteps="0" rerouteNo="0" devices="tripinfo_232868_232868_451" vType="DEFAULT_VEHTYPE" vaporized=""/>
    <tripinfo id="130602_130602_409" depart="27003.00" departLane="36454807#3-AddedOnRampEdge_0" departPos="5.10" departSpeed="0.00" departDelay="3.00" arrival="27088.00" arrivalLane="-144935692#1_0" arrivalPos="107.95" arrivalSpeed="12.72" duration="85.00" routeLength="747.61" waitSteps="7" rerouteNo="0" devices="tripinfo_130602_130602_409" vType="DEFAULT_VEHTYPE" vaporized=""/>
    <tripinfo id="183794_183794_431" depart="27003.00" departLane="145474195#0_0" departPos="5.10" departSpeed="0.00" departDelay="3.00" arrival="27088.00" arrivalLane="145575263_1" arrivalPos="260.32" arrivalSpeed="13.28" duration="85.00" routeLength="582.15" waitSteps="22" rerouteNo="0" devices="tripinfo_183794_183794_431" vType="DEFAULT_VEHTYPE" vaporized=""/>
    <tripinfo id="231672_231672_451" depart="27005.00" departLane="28557537#1_0" departPos="5.10" departSpeed="0.00" departDelay="1.00" arrival="27091.00" arrivalLane="23493260#7_1" arrivalPos="59.96" arrivalSpeed="13.60" duration="86.00" routeLength="1455.60" waitSteps="0" rerouteNo="0" devices="tripinfo_231672_231672_451" vType="DEFAULT_VEHTYPE" vaporized=""/>
    <tripinfo id="223859_223859_449" depart="27000.00" departLane="28542995#2_0" departPos="5.10" departSpeed="0.00" departDelay="0.00" arrival="27091.00" arrivalLane="4400194#0_0" arrivalPos="101.03" arrivalSpeed="8.04" duration="91.00" routeLength="685.42" waitSteps="0" rerouteNo="0" devices="tripinfo_223859_223859_449" vType="DEFAULT_VEHTYPE" vaporized=""/>
    <tripinfo id="243509_243509_452" depart="27016.00" departLane="31694310#0_0" departPos="5.10" departSpeed="0.00" departDelay="0.00" arrival="27091.00" arrivalLane="37866521#1_0" arrivalPos="52.00" arrivalSpeed="13.87" duration="75.00" routeLength="1026.54" waitSteps="0" rerouteNo="0" devices="tripinfo_243509_243509_452" vType="DEFAULT_VEHTYPE" vaporized=""/>
    <tripinfo id="228474_228474_450" depart="27014.00" departLane="69366483_0" departPos="5.10" departSpeed="0.00" departDelay="0.00" arrival="27093.00" arrivalLane="85470309#4_0" arrivalPos="208.83" arrivalSpeed="13.62" duration="79.00" routeLength="602.15" waitSteps="7" rerouteNo="0" devices="tripinfo_228474_228474_450" vType="DEFAULT_VEHTYPE" vaporized=""/>
    <tripinfo id="250676_250676_456" depart="27032.00" departLane="4390554#0_0" departPos="5.10" departSpeed="0.00" departDelay="0.00" arrival="27095.00" arrivalLane="29217219#1_0" arrivalPos="147.02" arrivalSpeed="7.64" duration="63.00" routeLength="452.14" waitSteps="0" rerouteNo="0" devices="tripinfo_250676_250676_456" vType="DEFAULT_VEHTYPE" vaporized=""/>
    <tripinfo id="247761_247761_455" depart="27013.00" departLane="151057637#2_0" departPos="5.10" departSpeed="0.00" departDelay="0.00" arrival="27097.00" arrivalLane="23471158#9_0" arrivalPos="213.75" arrivalSpeed="27.26" duration="84.00" routeLength="917.61" waitSteps="11" rerouteNo="0" devices="tripinfo_247761_247761_455" vType="DEFAULT_VEHTYPE" vaporized=""/>
    <tripinfo id="120909_120909_405" depart="27000.00" departLane="150031205#1_0" departPos="5.10" departSpeed="0.00" departDelay="0.00" arrival="27097.00" arrivalLane="-186463490#0_0" arrivalPos="52.69" arrivalSpeed="13.32" duration="97.00" routeLength="558.61" waitSteps="28" rerouteNo="0" devices="tripinfo_120909_120909_405" vType="DEFAULT_VEHTYPE" vaporized=""/>
    <tripinfo id="231030_231030_450" depart="27020.00" departLane="144935692#0_0" departPos="5.10" departSpeed="0.00" departDelay="0.00" arrival="27098.00" arrivalLane="186463490#1_0" arrivalPos="122.40" arrivalSpeed="13.83" duration="78.00" routeLength="627.20" waitSteps="20" rerouteNo="0" devices="tripinfo_231030_231030_450" vType="DEFAULT_VEHTYPE" vaporized=""/>