<?xml version="1.0" encoding="UTF-8"?>

<!-- generated on Mon Apr 28 18:09:37 2014 by SUMO sumo Version 0.19.0
<?xml version="1.0" encoding="UTF-8"?>

<configuration xmlns:xsi="http://www.w3.org/2001/XMLSchema-instance" xsi:noNamespaceSchemaLocation="http://sumo-sim.org/xsd/sumoConfiguration.xsd">

    <input>
        <net-file value="data/map.net.xml"/>
        <route-files value="data/map.rou.xml"/>
    </input>

    <output>
        <tripinfo-output value="data/maptripinfo.out.xml"/>
        <save-state.prefix value="data/state"/>
    </output>

    <time>
        <begin value="27000"/>
        <end value="27900"/>
    </time>

    <processing>
        <route-steps value="200"/>
        <scale value="0.8"/>
        <time-to-teleport value="300"/>
        <lanechange.allow-swap value="true"/>
    </processing>

    <report>
        <verbose value="true"/>
        <no-warnings value="true"/>
        <no-step-log value="true"/>
    </report>

    <emissions>
        <device.hbefa.probability value="1"/>
    </emissions>

    <traci_server>
        <remote-port value="8814"/>
    </traci_server>

</configuration>
-->

<tripinfos>
    <tripinfo id="136022_136022_411" depart="27003.00" departLane="23800191#2_0" departPos="5.10" departSpeed="0.00" departDelay="3.00" arrival="27009.00" arrivalLane="23800191#2_0" arrivalPos="38.41" arrivalSpeed="10.82" duration="6.00" routeLength="33.31" waitSteps="0" rerouteNo="6" devices="tripinfo_136022_136022_411 hbefa_136022_136022_411" vType="DEFAULT_VEHTYPE" vaporized="">
        <emissions CO_abs="288.414828" CO2_abs="20862.753537" HC_abs="7.034761" PMx_abs="2.448696" NOx_abs="43.602311" fuel_abs="8.317656"/>
    </tripinfo>
    <tripinfo id="182087_182087_431" depart="27000.00" departLane="4380937#2_0" departPos="5.10" departSpeed="0.00" departDelay="0.00" arrival="27011.00" arrivalLane="4380937#3_0" arrivalPos="72.76" arrivalSpeed="12.93" duration="11.00" routeLength="67.66" waitSteps="0" rerouteNo="11" devices="tripinfo_182087_182087_431 hbefa_182087_182087_431" vType="DEFAULT_VEHTYPE" vaporized="">
        <emissions CO_abs="454.706284" CO2_abs="34445.616880" HC_abs="11.006211" PMx_abs="4.093088" NOx_abs="72.179733" fuel_abs="13.732936"/>
    </tripinfo>
    <tripinfo id="105435_105435_398" depart="27003.00" departLane="145474196#1_0" departPos="5.10" departSpeed="0.00" departDelay="3.00" arrival="27013.00" arrivalLane="145474196#1_0" arrivalPos="94.12" arrivalSpeed="12.47" duration="10.00" routeLength="89.02" waitSteps="0" rerouteNo="10" devices="tripinfo_105435_105435_398 hbefa_105435_105435_398" vType="DEFAULT_VEHTYPE" vaporized="">
        <emissions CO_abs="496.204293" CO2_abs="34460.358314" HC_abs="11.385816" PMx_abs="4.293284" NOx_abs="73.705364" fuel_abs="13.738812"/>
    </tripinfo>
    <tripinfo id="72912_72912_384" depart="27003.00" departLane="9207803_0" departPos="5.10" departSpeed="0.00" departDelay="3.00" arrival="27013.00" arrivalLane="9207803_0" arrivalPos="69.23" arrivalSpeed="8.08" duration="10.00" routeLength="64.13" waitSteps="0" rerouteNo="10" devices="tripinfo_72912_72912_384 hbefa_72912_72912_384" vType="DEFAULT_VEHTYPE" vaporized="">
        <emissions CO_abs="197.173500" CO2_abs="18315.098457" HC_abs="5.743286" PMx_abs="1.915187" NOx_abs="36.169113" fuel_abs="7.301946"/>
    </tripinfo>
    <tripinfo id="92380_92380_392" depart="27000.00" departLane="-154755073#3_0" departPos="5.10" departSpeed="0.00" departDelay="0.00" arrival="27015.00" arrivalLane="-154755073#3_0" arrivalPos="102.52" arrivalSpeed="7.66" duration="15.00" routeLength="97.42" waitSteps="0" rerouteNo="15" devices="tripinfo_92380_92380_392 hbefa_92380_92380_392" vType="DEFAULT_VEHTYPE" vaporized="">
        <emissions CO_abs="180.594423" CO2_abs="23477.072070" HC_abs="6.857131" PMx_abs="1.954922" NOx_abs="43.223937" fuel_abs="9.359945"/>
    </tripinfo>
    <tripinfo id="251564_251564_457" depart="27002.00" departLane="51113317_0" departPos="5.10" departSpeed="0.00" departDelay="0.00" arrival="27015.00" arrivalLane="51113317_0" arrivalPos="125.08" arrivalSpeed="13.35" duration="13.00" routeLength="119.98" waitSteps="0" rerouteNo="13" devices="tripinfo_251564_251564_457 hbefa_251564_251564_457" vType="DEFAULT_VEHTYPE" vaporized="">
        <emissions CO_abs="468.026200" CO2_abs="39463.777479" HC_abs="12.055036" PMx_abs="4.298362" NOx_abs="80.654758" fuel_abs="15.733602"/>
    </tripinfo>
    <tripinfo id="84049_84049_390" depart="27006.00" departLane="9207803_0" departPos="5.10" departSpeed="0.00" departDelay="6.00" arrival="27017.00" arrivalLane="9207803_0" arrivalPos="69.23" arrivalSpeed="8.24" duration="11.00" routeLength="64.13" waitSteps="0" rerouteNo="11" devices="tripinfo_84049_84049_390 hbefa_84049_84049_390" vType="DEFAULT_VEHTYPE" vaporized="">
        <emissions CO_abs="181.912789" CO2_abs="20616.865782" HC_abs="6.238348" PMx_abs="1.788925" NOx_abs="38.754334" fuel_abs="8.219625"/>
    </tripinfo>
    <tripinfo id="232041_232041_451" depart="27002.00" departLane="28523795_0" departPos="5.10" departSpeed="0.00" departDelay="0.00" arrival="27020.00" arrivalLane="28523795_0" arrivalPos="192.02" arrivalSpeed="13.15" duration="18.00" routeLength="186.92" waitSteps="0" rerouteNo="18" devices="tripinfo_232041_232041_451 hbefa_232041_232041_451" vType="DEFAULT_VEHTYPE" vaporized="">
        <emissions CO_abs="520.756722" CO2_abs="44576.656472" HC_abs="13.379825" PMx_abs="4.835523" NOx_abs="91.075906" fuel_abs="17.772030"/>
    </tripinfo>
    <tripinfo id="135880_135880_411" depart="27000.00" departLane="150039002#2_0" departPos="5.10" departSpeed="0.00" departDelay="0.00" arrival="27022.00" arrivalLane="150039002#2_0" arrivalPos="249.40" arrivalSpeed="12.71" duration="22.00" routeLength="244.30" waitSteps="0" rerouteNo="22" devices="tripinfo_135880_135880_411 hbefa_135880_135880_411" vType="DEFAULT_VEHTYPE" vaporized="">
        <emissions CO_abs="512.448738" CO2_abs="53039.730684" HC_abs="14.696555" PMx_abs="5.322106" NOx_abs="105.035471" fuel_abs="21.146132"/>
    </tripinfo>
    <tripinfo id="206737_206737_440" depart="27007.00" departLane="-29206900_0" departPos="5.10" departSpeed="0.00" departDelay="0.00" arrival="27022.00" arrivalLane="29207110_0" arrivalPos="28.94" arrivalSpeed="12.96" duration="15.00" routeLength="23.84" waitSteps="0" rerouteNo="15" devices="tripinfo_206737_206737_440 hbefa_206737_206737_440" vType="DEFAULT_VEHTYPE" vaporized="">
        <emissions CO_abs="505.218019" CO2_abs="38846.670457" HC_abs="12.567627" PMx_abs="4.465174" NOx_abs="80.513118" fuel_abs="15.487566"/>
    </tripinfo>
    <tripinfo id="110327_110327_401" depart="27000.00" departLane="53212166#0_0" departPos="5.10" departSpeed="0.00" departDelay="0.00" arrival="27023.00" arrivalLane="28542995#2_2" arrivalPos="61.74" arrivalSpeed="12.72" duration="23.00" routeLength="56.64" waitSteps="0" rerouteNo="23" devices="tripinfo_110327_110327_401 hbefa_110327_110327_401" vType="DEFAULT_VEHTYPE" vaporized="">
        <emissions CO_abs="552.468789" CO2_abs="46909.861242" HC_abs="14.268211" PMx_abs="5.019891" NOx_abs="95.485116" fuel_abs="18.702240"/>
    </tripinfo>
    <tripinfo id="225242_225242_449" depart="27000.00" departLane="154755124_0" departPos="5.10" departSpeed="0.00" departDelay="0.00" arrival="27024.00" arrivalLane="4380937#3_1" arrivalPos="72.76" arrivalSpeed="13.19" duration="24.00" routeLength="67.66" waitSteps="0" rerouteNo="24" devices="tripinfo_225242_225242_449 hbefa_225242_225242_449" vType="DEFAULT_VEHTYPE" vaporized="">
        <emissions CO_abs="641.079489" CO2_abs="51818.314246" HC_abs="16.337783" PMx_abs="5.748858" NOx_abs="106.240826" fuel_abs="20.659162"/>
    </tripinfo>
    <tripinfo id="141415_141415_415" depart="27003.00" departLane="150039002#2_0" departPos="5.10" departSpeed="0.00" departDelay="3.00" arrival="27024.00" arrivalLane="150039002#2_0" arrivalPos="249.40" arrivalSpeed="13.89" duration="21.00" routeLength="244.30" waitSteps="0" rerouteNo="21" devices="tripinfo_141415_141415_415 hbefa_141415_141415_415" vType="DEFAULT_VEHTYPE" vaporized="">
        <emissions CO_abs="619.926172" CO2_abs="52372.013553" HC_abs="15.588669" PMx_abs="5.736271" NOx_abs="107.709042" fuel_abs="20.879921"/>
    </tripinfo>
    <tripinfo id="225541_225541_450" depart="27000.00" departLane="9207803_0" departPos="5.10" departSpeed="0.00" departDelay="0.00" arrival="27024.00" arrivalLane="154755073#3_0" arrivalPos="102.52" arrivalSpeed="8.12" duration="24.00" routeLength="97.42" waitSteps="0" rerouteNo="24" devices="tripinfo_225541_225541_450 hbefa_225541_225541_450" vType="DEFAULT_VEHTYPE" vaporized="">
        <emissions CO_abs="297.284929" CO2_abs="33975.758723" HC_abs="10.002912" PMx_abs="3.096056" NOx_abs="64.483134" fuel_abs="13.545609"/>
    </tripinfo>
    <tripinfo id="148867_148867_417" depart="27006.00" departLane="3065455_0" departPos="5.10" departSpeed="0.00" departDelay="6.00" arrival="27024.00" arrivalLane="23800191#0_0" arrivalPos="143.94" arrivalSpeed="13.34" duration="18.00" routeLength="138.84" waitSteps="0" rerouteNo="18" devices="tripinfo_148867_148867_417 hbefa_148867_148867_417" vType="DEFAULT_VEHTYPE" vaporized="">
        <emissions CO_abs="496.781863" CO2_abs="44026.859106" HC_abs="13.104733" PMx_abs="4.525651" NOx_abs="88.988504" fuel_abs="17.552834"/>
    </tripinfo>
    <tripinfo id="219187_219187_446" depart="27000.00" departLane="144935690_0" departPos="5.10" departSpeed="0.00" departDelay="0.00" arrival="27024.00" arrivalLane="25997632_0" arrivalPos="136.14" arrivalSpeed="12.86" duration="24.00" routeLength="131.04" waitSteps="0" rerouteNo="24" devices="tripinfo_219187_219187_446 hbefa_219187_219187_446" vType="DEFAULT_VEHTYPE" vaporized="">
        <emissions CO_abs="556.408023" CO2_abs="52360.817275" HC_abs="15.483419" PMx_abs="5.185859" NOx_abs="104.174356" fuel_abs="20.875455"/>
    </tripinfo>
    <tripinfo id="68737_68737_381" depart="27014.00" departLane="23493176_0" departPos="5.10" departSpeed="0.00" departDelay="14.00" arrival="27026.00" arrivalLane="23493176_0" arrivalPos="83.31" arrivalSpeed="8.28" duration="12.00" routeLength="78.21" waitSteps="0" rerouteNo="12" devices="tripinfo_68737_68737_381 hbefa_68737_68737_381" vType="DEFAULT_VEHTYPE" vaporized="">
        <emissions CO_abs="202.299545" CO2_abs="21415.978853" HC_abs="6.544271" PMx_abs="1.998974" NOx_abs="40.946149" fuel_abs="8.538219"/>
    </tripinfo>
    <tripinfo id="136596_136596_411" depart="27003.00" departLane="131651824_0" departPos="5.10" departSpeed="0.00" departDelay="3.00" arrival="27027.00" arrivalLane="4400211#0_0" arrivalPos="197.56" arrivalSpeed="10.91" duration="24.00" routeLength="192.46" waitSteps="0" rerouteNo="24" devices="tripinfo_136596_136596_411 hbefa_136596_136596_411" vType="DEFAULT_VEHTYPE" vaporized="">
        <emissions CO_abs="668.674471" CO2_abs="59519.147370" HC_abs="17.583081" PMx_abs="6.193247" NOx_abs="120.479254" fuel_abs="23.729372"/>
    </tripinfo>
    <tripinfo id="220353_220353_447" depart="27001.00" departLane="-165515969#3_0" departPos="5.10" departSpeed="0.00" departDelay="0.00" arrival="27027.00" arrivalLane="-165511531#0_0" arrivalPos="53.73" arrivalSpeed="13.88" duration="26.00" routeLength="48.63" waitSteps="0" rerouteNo="26" devices="tripinfo_220353_220353_447 hbefa_220353_220353_447" vType="DEFAULT_VEHTYPE" vaporized="">
        <emissions CO_abs="2449.119661" CO2_abs="144112.552817" HC_abs="48.805888" PMx_abs="19.416264" NOx_abs="323.282347" fuel_abs="57.455493"/>
    </tripinfo>
    <tripinfo id="75851_75851_386" depart="27002.00" departLane="28542995#2_0" departPos="5.10" departSpeed="0.00" departDelay="2.00" arrival="27028.00" arrivalLane="23493181#0_0" arrivalPos="88.20" arrivalSpeed="2.35" duration="26.00" routeLength="83.10" waitSteps="1" rerouteNo="26" devices="tripinfo_75851_75851_386 hbefa_75851_75851_386" vType="DEFAULT_VEHTYPE" vaporized="">
        <emissions CO_abs="544.710295" CO2_abs="42713.076085" HC_abs="14.132656" PMx_abs="4.797490" NOx_abs="87.378024" fuel_abs="17.029040"/>
    </tripinfo>
    <tripinfo id="84113_84113_390" depart="27000.00" departLane="150031205#0_0" departPos="5.10" departSpeed="0.00" departDelay="0.00" arrival="27028.00" arrivalLane="23471158#10_0" arrivalPos="144.68" arrivalSpeed="26.56" duration="28.00" routeLength="139.58" waitSteps="0" rerouteNo="28" devices="tripinfo_84113_84113_390 hbefa_84113_84113_390" vType="DEFAULT_VEHTYPE" vaporized="">
        <emissions CO_abs="2391.461219" CO2_abs="138912.167261" HC_abs="46.695227" PMx_abs="17.572524" NOx_abs="309.874630" fuel_abs="55.382223"/>
    </tripinfo>
    <tripinfo id="134089_134089_411" depart="27000.00" departLane="23800191#2_0" departPos="5.10" departSpeed="0.00" departDelay="0.00" arrival="27029.00" arrivalLane="4400211#0_0" arrivalPos="197.56" arrivalSpeed="12.67" duration="29.00" routeLength="192.46" waitSteps="0" rerouteNo="29" devices="tripinfo_134089_134089_411 hbefa_134089_134089_411" vType="DEFAULT_VEHTYPE" vaporized="">
        <emissions CO_abs="755.869925" CO2_abs="72576.209958" HC_abs="20.735950" PMx_abs="7.599446" NOx_abs="145.604471" fuel_abs="28.935024"/>
    </tripinfo>
    <tripinfo id="188835_188835_434" depart="27006.00" departLane="187965762#1_0" departPos="5.10" departSpeed="0.00" departDelay="6.00" arrival="27030.00" arrivalLane="187965762#2_0" arrivalPos="85.18" arrivalSpeed="7.96" duration="24.00" routeLength="80.08" waitSteps="0" rerouteNo="24" devices="tripinfo_188835_188835_434 hbefa_188835_188835_434" vType="DEFAULT_VEHTYPE" vaporized="">
        <emissions CO_abs="245.221883" CO2_abs="33041.159153" HC_abs="9.401110" PMx_abs="2.747012" NOx_abs="60.825188" fuel_abs="13.172999"/>
    </tripinfo>
    <tripinfo id="118681_118681_405" depart="27000.00" departLane="23471158#6_0" departPos="5.10" departSpeed="0.00" departDelay="0.00" arrival="27031.00" arrivalLane="32856811#2_0" arrivalPos="144.91" arrivalSpeed="13.42" duration="31.00" routeLength="139.81" waitSteps="0" rerouteNo="31" devices="tripinfo_118681_118681_405 hbefa_118681_118681_405" vType="DEFAULT_VEHTYPE" vaporized="">
        <emissions CO_abs="2105.752901" CO2_abs="138959.729248" HC_abs="44.125924" PMx_abs="16.609340" NOx_abs="301.337777" fuel_abs="55.401168"/>
    </tripinfo>
    <tripinfo id="187318_187318_433" depart="27013.00" departLane="-83823403#2_0" departPos="5.10" departSpeed="0.00" departDelay="0.00" arrival="27031.00" arrivalLane="-83823403#2_0" arrivalPos="184.87" arrivalSpeed="9.94" duration="18.00" routeLength="179.77" waitSteps="0" rerouteNo="18" devices="tripinfo_187318_187318_433 hbefa_187318_187318_433" vType="DEFAULT_VEHTYPE" vaporized="">
        <emissions CO_abs="538.829029" CO2_abs="46971.076212" HC_abs="14.075063" PMx_abs="5.045041" NOx_abs="95.555063" fuel_abs="18.726647"/>
    </tripinfo>
    <tripinfo id="103637_103637_397" depart="27000.00" departLane="145474196#1_0" departPos="5.10" departSpeed="0.00" departDelay="0.00" arrival="27032.00" arrivalLane="150039002#2_1" arrivalPos="249.40" arrivalSpeed="13.77" duration="32.00" routeLength="244.30" waitSteps="0" rerouteNo="32" devices="tripinfo_103637_103637_397 hbefa_103637_103637_397" vType="DEFAULT_VEHTYPE" vaporized="">
        <emissions CO_abs="830.782101" CO2_abs="77884.438654" HC_abs="22.405865" PMx_abs="7.871017" NOx_abs="156.441482" fuel_abs="31.051335"/>
    </tripinfo>
    <tripinfo id="122617_122617_406" depart="27000.00" departLane="131651824_0" departPos="5.10" departSpeed="0.00" departDelay="0.00" arrival="27032.00" arrivalLane="130875842_0" arrivalPos="81.21" arrivalSpeed="12.96" duration="32.00" routeLength="76.11" waitSteps="0" rerouteNo="32" devices="tripinfo_122617_122617_406 hbefa_122617_122617_406" vType="DEFAULT_VEHTYPE" vaporized="">
        <emissions CO_abs="956.483006" CO2_abs="74476.057389" HC_abs="23.191647" PMx_abs="8.524938" NOx_abs="155.343414" fuel_abs="29.692459"/>
    </tripinfo>
    <tripinfo id="212444_212444_443" depart="27003.00" departLane="166155712#0_0" departPos="5.10" departSpeed="0.00" departDelay="0.00" arrival="27033.00" arrivalLane="33469672_0" arrivalPos="142.78" arrivalSpeed="12.93" duration="30.00" routeLength="137.68" waitSteps="0" rerouteNo="30" devices="tripinfo_212444_212444_443 hbefa_212444_212444_443" vType="DEFAULT_VEHTYPE" vaporized="">
        <emissions CO_abs="905.332206" CO2_abs="73026.712735" HC_abs="22.310566" PMx_abs="8.268673" NOx_abs="151.492350" fuel_abs="29.114629"/>
    </tripinfo>
    <tripinfo id="113217_113217_402" depart="27008.00" departLane="23493176_0" departPos="5.10" departSpeed="0.00" departDelay="8.00" arrival="27035.00" arrivalLane="154755096_1" arrivalPos="66.91" arrivalSpeed="13.85" duration="27.00" routeLength="61.81" waitSteps="0" rerouteNo="27" devices="tripinfo_113217_113217_402 hbefa_113217_113217_402" vType="DEFAULT_VEHTYPE" vaporized="">
        <emissions CO_abs="573.137038" CO2_abs="58297.808923" HC_abs="17.074256" PMx_abs="5.627141" NOx_abs="113.926703" fuel_abs="23.242438"/>
    </tripinfo>
    <tripinfo id="208001_208001_441" depart="27001.00" departLane="-83823403#2_0" departPos="5.10" departSpeed="0.00" departDelay="0.00" arrival="27036.00" arrivalLane="23015529#0_0" arrivalPos="184.87" arrivalSpeed="13.89" duration="35.00" routeLength="179.77" waitSteps="0" rerouteNo="35" devices="tripinfo_208001_208001_441 hbefa_208001_208001_441" vType="DEFAULT_VEHTYPE" vaporized="">
        <emissions CO_abs="1093.627540" CO2_abs="86707.895558" HC_abs="26.724701" PMx_abs="9.736337" NOx_abs="180.053723" fuel_abs="34.569107"/>
    </tripinfo>
    <tripinfo id="217202_217202_446" depart="27007.00" departLane="-83823403#2_0" departPos="5.10" departSpeed="0.00" departDelay="0.00" arrival="27036.00" arrivalLane="23015533_0" arrivalPos="110.79" arrivalSpeed="13.17" duration="29.00" routeLength="105.69" waitSteps="0" rerouteNo="29" devices="tripinfo_217202_217202_446 hbefa_217202_217202_446" vType="DEFAULT_VEHTYPE" vaporized="">
        <emissions CO_abs="818.870257" CO2_abs="73200.006766" HC_abs="21.626665" PMx_abs="7.675362" NOx_abs="148.213793" fuel_abs="29.183721"/>
    </tripinfo>
    <tripinfo id="154499_154499_420" depart="27000.00" departLane="28542995#0_0" departPos="5.10" departSpeed="0.00" departDelay="0.00" arrival="27038.00" arrivalLane="23493260#4_0" arrivalPos="126.60" arrivalSpeed="12.97" duration="38.00" routeLength="121.50" waitSteps="0" rerouteNo="38" devices="tripinfo_154499_154499_420 hbefa_154499_154499_420" vType="DEFAULT_VEHTYPE" vaporized="">
        <emissions CO_abs="973.033316" CO2_abs="89749.164141" HC_abs="26.137933" PMx_abs="9.244271" NOx_abs="180.676651" fuel_abs="35.781619"/>
    </tripinfo>
    <tripinfo id="103310_103310_397" depart="27000.00" departLane="83703645_0" departPos="5.10" departSpeed="0.00" departDelay="0.00" arrival="27038.00" arrivalLane="23493177#0_0" arrivalPos="166.52" arrivalSpeed="7.51" duration="38.00" routeLength="161.42" waitSteps="0" rerouteNo="38" devices="tripinfo_103310_103310_397 hbefa_103310_103310_397" vType="DEFAULT_VEHTYPE" vaporized="">
        <emissions CO_abs="505.754815" CO2_abs="55986.800656" HC_abs="16.439510" PMx_abs="5.158432" NOx_abs="107.020351" fuel_abs="22.321072"/>
    </tripinfo>
    <tripinfo id="123467_123467_406" depart="27009.00" departLane="23471158#6_0" departPos="5.10" departSpeed="0.00" departDelay="9.00" arrival="27039.00" arrivalLane="32856811#2_0" arrivalPos="144.91" arrivalSpeed="12.74" duration="30.00" routeLength="139.81" waitSteps="0" rerouteNo="30" devices="tripinfo_123467_123467_406 hbefa_123467_123467_406" vType="DEFAULT_VEHTYPE" vaporized="">
        <emissions CO_abs="2060.006254" CO2_abs="127940.602290" HC_abs="42.024963" PMx_abs="16.009199" NOx_abs="281.804060" fuel_abs="51.007995"/>
    </tripinfo>
    <tripinfo id="238887_238887_451" depart="27010.00" departLane="-83823403#2_0" departPos="5.10" departSpeed="0.00" departDelay="0.00" arrival="27039.00" arrivalLane="23015533_0" arrivalPos="110.79" arrivalSpeed="13.30" duration="29.00" routeLength="105.69" waitSteps="0" rerouteNo="29" devices="tripinfo_238887_238887_451 hbefa_238887_238887_451" vType="DEFAULT_VEHTYPE" vaporized="">
        <emissions CO_abs="916.946020" CO2_abs="75394.996227" HC_abs="22.917825" PMx_abs="8.352042" NOx_abs="155.503495" fuel_abs="30.058828"/>
    </tripinfo>
    <tripinfo id="218769_218769_446" depart="27003.00" departLane="-55940134_0" departPos="5.10" departSpeed="0.00" departDelay="3.00" arrival="27040.00" arrivalLane="-144935692#1_1" arrivalPos="103.61" arrivalSpeed="12.60" duration="37.00" routeLength="98.51" waitSteps="0" rerouteNo="37" devices="tripinfo_218769_218769_446 hbefa_218769_218769_446" vType="DEFAULT_VEHTYPE" vaporized="">
        <emissions CO_abs="630.479539" CO2_abs="67855.638228" HC_abs="18.489483" PMx_abs="6.431680" NOx_abs="133.203105" fuel_abs="27.053010"/>
    </tripinfo>
    <tripinfo id="171544_171544_426" depart="27000.00" departLane="187965762#1_0" departPos="5.10" departSpeed="0.00" departDelay="0.00" arrival="27040.00" arrivalLane="23800191#0_0" arrivalPos="143.94" arrivalSpeed="12.64" duration="40.00" routeLength="138.84" waitSteps="0" rerouteNo="40" devices="tripinfo_171544_171544_426 hbefa_171544_171544_426" vType="DEFAULT_VEHTYPE" vaporized="">
        <emissions CO_abs="611.699732" CO2_abs="66816.682651" HC_abs="18.856613" PMx_abs="6.300694" NOx_abs="129.547730" fuel_abs="26.638787"/>
    </tripinfo>
    <tripinfo id="138122_138122_412" depart="27009.00" departLane="131651824_0" departPos="5.10" departSpeed="0.00" departDelay="9.00" arrival="27041.00" arrivalLane="130875842_0" arrivalPos="81.21" arrivalSpeed="13.42" duration="32.00" routeLength="76.11" waitSteps="0" rerouteNo="32" devices="tripinfo_138122_138122_412 hbefa_138122_138122_412" vType="DEFAULT_VEHTYPE" vaporized="">
        <emissions CO_abs="947.604097" CO2_abs="81789.743090" HC_abs="24.320502" PMx_abs="8.751553" NOx_abs="167.042078" fuel_abs="32.608317"/>
    </tripinfo>
    <tripinfo id="184987_184987_431" depart="27000.00" departLane="-186463490#0_0" departPos="5.10" departSpeed="0.00" departDelay="0.00" arrival="27042.00" arrivalLane="-144935692#1_1" arrivalPos="103.61" arrivalSpeed="13.14" duration="42.00" routeLength="98.51" waitSteps="0" rerouteNo="42" devices="tripinfo_184987_184987_431 hbefa_184987_184987_431" vType="DEFAULT_VEHTYPE" vaporized="">
        <emissions CO_abs="684.339796" CO2_abs="87039.727752" HC_abs="22.405970" PMx_abs="7.671747" NOx_abs="166.650858" fuel_abs="34.701420"/>
    </tripinfo>
    <tripinfo id="104726_104726_398" depart="27000.00" departLane="23471158#5_0" departPos="5.10" departSpeed="0.00" departDelay="0.00" arrival="27042.00" arrivalLane="32856811#2_1" arrivalPos="144.91" arrivalSpeed="13.06" duration="42.00" routeLength="139.81" waitSteps="0" rerouteNo="42" devices="tripinfo_104726_104726_398 hbefa_104726_104726_398" vType="DEFAULT_VEHTYPE" vaporized="">
        <emissions CO_abs="1249.014822" CO2_abs="108190.205089" HC_abs="31.970694" PMx_abs="11.599265" NOx_abs="220.984183" fuel_abs="43.133782"/>
    </tripinfo>
    <tripinfo id="101768_101768_396" depart="27000.00" departLane="23493181#0_0" departPos="5.10" departSpeed="0.00" departDelay="0.00" arrival="27042.00" arrivalLane="122989592#2_1" arrivalPos="74.34" arrivalSpeed="7.29" duration="42.00" routeLength="69.24" waitSteps="0" rerouteNo="42" devices="tripinfo_101768_101768_396 hbefa_101768_101768_396" vType="DEFAULT_VEHTYPE" vaporized="">
        <emissions CO_abs="656.685087" CO2_abs="68576.017776" HC_abs="20.094654" PMx_abs="6.724439" NOx_abs="133.449391" fuel_abs="27.340200"/>
    </tripinfo>
    <tripinfo id="244420_244420_453" depart="27015.00" departLane="-165515969#3_0" departPos="5.10" departSpeed="0.00" departDelay="0.00" arrival="27042.00" arrivalLane="-165511531#0_0" arrivalPos="53.73" arrivalSpeed="12.88" duration="27.00" routeLength="48.63" waitSteps="0" rerouteNo="27" devices="tripinfo_244420_244420_453 hbefa_244420_244420_453" vType="DEFAULT_VEHTYPE" vaporized="">
        <emissions CO_abs="2096.536633" CO2_abs="127779.645112" HC_abs="42.921389" PMx_abs="16.474478" NOx_abs="282.997357" fuel_abs="50.943803"/>
    </tripinfo>
    <tripinfo id="211099_211099_442" depart="27013.00" departLane="166155712#0_0" departPos="5.10" departSpeed="0.00" departDelay="0.00" arrival="27043.00" arrivalLane="33469672_0" arrivalPos="142.78" arrivalSpeed="13.36" duration="30.00" routeLength="137.68" waitSteps="0" rerouteNo="30" devices="tripinfo_211099_211099_442 hbefa_211099_211099_442" vType="DEFAULT_VEHTYPE" vaporized="">
        <emissions CO_abs="862.735177" CO2_abs="77507.259240" HC_abs="22.711085" PMx_abs="8.236059" NOx_abs="157.210984" fuel_abs="30.900957"/>
    </tripinfo>
    <tripinfo id="197472_197472_436" depart="27006.00" departLane="23800191#2_0" departPos="5.10" departSpeed="0.00" departDelay="6.00" arrival="27043.00" arrivalLane="130875842_0" arrivalPos="81.21" arrivalSpeed="12.82" duration="37.00" routeLength="76.11" waitSteps="0" rerouteNo="37" devices="tripinfo_197472_197472_436 hbefa_197472_197472_436" vType="DEFAULT_VEHTYPE" vaporized="">
        <emissions CO_abs="897.735474" CO2_abs="87132.440689" HC_abs="25.052365" PMx_abs="8.771728" NOx_abs="173.415968" fuel_abs="34.738370"/>
    </tripinfo>
    <tripinfo id="212327_212327_442" depart="27014.00" departLane="198147972_0" departPos="5.10" departSpeed="0.00" departDelay="0.00" arrival="27043.00" arrivalLane="4353628#1_0" arrivalPos="68.95" arrivalSpeed="13.88" duration="29.00" routeLength="63.85" waitSteps="0" rerouteNo="29" devices="tripinfo_212327_212327_442 hbefa_212327_212327_442" vType="DEFAULT_VEHTYPE" vaporized="">
        <emissions CO_abs="633.215248" CO2_abs="65991.350841" HC_abs="18.092156" PMx_abs="6.422166" NOx_abs="130.448951" fuel_abs="26.309748"/>
    </tripinfo>
    <tripinfo id="224931_224931_449" depart="27026.00" departLane="-28523795_0" departPos="5.10" departSpeed="0.00" departDelay="0.00" arrival="27044.00" arrivalLane="-28523795_0" arrivalPos="192.02" arrivalSpeed="13.09" duration="18.00" routeLength="186.92" waitSteps="0" rerouteNo="18" devices="tripinfo_224931_224931_449 hbefa_224931_224931_449" vType="DEFAULT_VEHTYPE" vaporized="">
        <emissions CO_abs="490.556609" CO2_abs="45161.276468" HC_abs="13.312162" PMx_abs="4.553403" NOx_abs="90.529206" fuel_abs="18.005109"/>
    </tripinfo>
    <tripinfo id="101376_101376_396" depart="27003.00" departLane="23471158#0_0" departPos="5.10" departSpeed="0.00" departDelay="3.00" arrival="27044.00" arrivalLane="32856811#2_0" arrivalPos="144.91" arrivalSpeed="12.89" duration="41.00" routeLength="139.81" waitSteps="0" rerouteNo="41" devices="tripinfo_101376_101376_396 hbefa_101376_101376_396" vType="DEFAULT_VEHTYPE" vaporized="">
        <emissions CO_abs="2793.219830" CO2_abs="178743.093826" HC_abs="57.412096" PMx_abs="21.826730" NOx_abs="391.328750" fuel_abs="71.262192"/>
    </tripinfo>
    <tripinfo id="245947_245947_454" depart="27016.00" departLane="-83823403#2_0" departPos="5.10" departSpeed="0.00" departDelay="0.00" arrival="27045.00" arrivalLane="23015533_0" arrivalPos="110.79" arrivalSpeed="13.11" duration="29.00" routeLength="105.69" waitSteps="0" rerouteNo="29" devices="tripinfo_245947_245947_454 hbefa_245947_245947_454" vType="DEFAULT_VEHTYPE" vaporized="">
        <emissions CO_abs="897.822536" CO2_abs="76651.385879" HC_abs="22.875661" PMx_abs="8.488280" NOx_abs="157.272738" fuel_abs="30.559732"/>
    </tripinfo>
    <tripinfo id="138850_138850_413" depart="27000.00" departLane="166222937#0_0" departPos="5.10" departSpeed="0.00" departDelay="0.00" arrival="27046.00" arrivalLane="150039002#2_1" arrivalPos="249.40" arrivalSpeed="12.91" duration="46.00" routeLength="244.30" waitSteps="0" rerouteNo="46" devices="tripinfo_138850_138850_413 hbefa_138850_138850_413" vType="DEFAULT_VEHTYPE" vaporized="">
        <emissions CO_abs="1391.042925" CO2_abs="113819.522115" HC_abs="34.704949" PMx_abs="12.797258" NOx_abs="235.213483" fuel_abs="45.378095"/>
    </tripinfo>
    <tripinfo id="221885_221885_448" depart="27017.00" departLane="-175607927#0_0" departPos="5.10" departSpeed="0.00" departDelay="0.00" arrival="27046.00" arrivalLane="-29214406_0" arrivalPos="179.38" arrivalSpeed="12.79" duration="29.00" routeLength="174.28" waitSteps="0" rerouteNo="29" devices="tripinfo_221885_221885_448 hbefa_221885_221885_448" vType="DEFAULT_VEHTYPE" vaporized="">
        <emissions CO_abs="840.551477" CO2_abs="68422.336335" HC_abs="20.810802" PMx_abs="7.698972" NOx_abs="141.621872" fuel_abs="27.278935"/>
    </tripinfo>
    <tripinfo id="244003_244003_453" depart="27029.00" departLane="-28523795_0" departPos="5.10" departSpeed="0.00" departDelay="0.00" arrival="27047.00" arrivalLane="-28523795_0" arrivalPos="192.02" arrivalSpeed="13.12" duration="18.00" routeLength="186.92" waitSteps="0" rerouteNo="18" devices="tripinfo_244003_244003_453 hbefa_244003_244003_453" vType="DEFAULT_VEHTYPE" vaporized="">
        <emissions CO_abs="494.407497" CO2_abs="45476.327590" HC_abs="13.318749" PMx_abs="4.701088" NOx_abs="91.489168" fuel_abs="18.130716"/>
    </tripinfo>
    <tripinfo id="192246_192246_435" depart="27018.00" departLane="2511537#2_0" departPos="5.10" departSpeed="0.00" departDelay="18.00" arrival="27047.00" arrivalLane="2511537#2_0" arrivalPos="191.15" arrivalSpeed="8.16" duration="29.00" routeLength="186.05" waitSteps="0" rerouteNo="29" devices="tripinfo_192246_192246_435 hbefa_192246_192246_435" vType="DEFAULT_VEHTYPE" vaporized="">
        <emissions CO_abs="414.453634" CO2_abs="41474.484198" HC_abs="12.720939" PMx_abs="3.992937" NOx_abs="80.448995" fuel_abs="16.535234"/>
    </tripinfo>
    <tripinfo id="227630_227630_450" depart="27017.00" departLane="166155712#0_0" departPos="5.10" departSpeed="0.00" departDelay="0.00" arrival="27047.00" arrivalLane="33469672_0" arrivalPos="142.78" arrivalSpeed="13.40" duration="30.00" routeLength="137.68" waitSteps="0" rerouteNo="30" devices="tripinfo_227630_227630_450 hbefa_227630_227630_450" vType="DEFAULT_VEHTYPE" vaporized="">