<?xml version="1.0" encoding="UTF-8"?>

<!-- generated on Tue Feb 25 09:28:58 2014 by SUMO sumo Version dev-SVN-r15641
<?xml version="1.0" encoding="UTF-8"?>

<configuration xmlns:xsi="http://www.w3.org/2001/XMLSchema-instance" xsi:noNamespaceSchemaLocation="http://sumo-sim.org/xsd/sumoConfiguration.xsd">

    <input>
        <net-file value="data/map.net.xml"/>
        <route-files value="data/map.rou.xml"/>
    </input>

    <output>
        <tripinfo-output value="data/maptripinfo.out.xml"/>
        <save-state.prefix value="data/state"/>
    </output>

    <time>
        <begin value="27000"/>
        <end value="27900"/>
    </time>

    <processing>
        <route-steps value="200"/>
        <scale value="0.8"/>
        <time-to-teleport value="300"/>
        <lanechange.allow-swap value="true"/>
    </processing>

    <report>
        <verbose value="true"/>
        <no-warnings value="true"/>
        <no-step-log value="true"/>
    </report>

    <emissions>
        <device.hbefa.probability value="1"/>
    </emissions>

    <routing>
        <device.rerouting.probability value="1"/>
    </routing>

</configuration>
-->

<tripinfos>
    <tripinfo id="136022_136022_411" depart="27003.00" departLane="23800191#2_0" departPos="5.10" departSpeed="0.00" departDelay="3.00" arrival="27009.00" arrivalLane="23800191#2_0" arrivalPos="38.41" arrivalSpeed="11.75" duration="6.00" routeLength="33.31" waitSteps="0" rerouteNo="1" devices="tripinfo_136022_136022_411 routing_136022_136022_411 hbefa_136022_136022_411" vType="DEFAULT_VEHTYPE" vaporized="">
        <emissions CO_abs="365.668669" CO2_abs="23959.377919" HC_abs="8.315366" PMx_abs="3.067507" NOx_abs="51.604970" fuel_abs="9.552232"/>
    </tripinfo>
    <tripinfo id="182087_182087_431" depart="27000.00" departLane="4380937#2_0" departPos="5.10" departSpeed="0.00" departDelay="0.00" arrival="27011.00" arrivalLane="4380937#3_0" arrivalPos="72.76" arrivalSpeed="12.90" duration="11.00" routeLength="103.50" waitSteps="0" rerouteNo="1" devices="tripinfo_182087_182087_431 routing_182087_182087_431 hbefa_182087_182087_431" vType="DEFAULT_VEHTYPE" vaporized="">
        <emissions CO_abs="441.054242" CO2_abs="34343.654298" HC_abs="10.855484" PMx_abs="3.919770" NOx_abs="71.347957" fuel_abs="13.692286"/>
    </tripinfo>
    <tripinfo id="72912_72912_384" depart="27003.00" departLane="9207803_0" departPos="5.10" departSpeed="0.00" departDelay="3.00" arrival="27013.00" arrivalLane="9207803_0" arrivalPos="69.23" arrivalSpeed="8.29" duration="10.00" routeLength="64.13" waitSteps="0" rerouteNo="1" devices="tripinfo_72912_72912_384 routing_72912_72912_384 hbefa_72912_72912_384" vType="DEFAULT_VEHTYPE" vaporized="">
        <emissions CO_abs="196.333023" CO2_abs="19751.311772" HC_abs="6.079132" PMx_abs="1.938490" NOx_abs="38.251558" fuel_abs="7.874542"/>
    </tripinfo>
    <tripinfo id="105435_105435_398" depart="27003.00" departLane="145474196#1_0" departPos="5.10" departSpeed="0.00" departDelay="3.00" arrival="27014.00" arrivalLane="145474196#1_0" arrivalPos="94.12" arrivalSpeed="12.61" duration="11.00" routeLength="89.02" waitSteps="0" rerouteNo="1" devices="tripinfo_105435_105435_398 routing_105435_105435_398 hbefa_105435_105435_398" vType="DEFAULT_VEHTYPE" vaporized="">
        <emissions CO_abs="451.848566" CO2_abs="34146.360707" HC_abs="11.006693" PMx_abs="3.913063" NOx_abs="71.173253" fuel_abs="13.613627"/>
    </tripinfo>
    <tripinfo id="92380_92380_392" depart="27000.00" departLane="-154755073#3_0" departPos="5.10" departSpeed="0.00" departDelay="0.00" arrival="27015.00" arrivalLane="-154755073#3_0" arrivalPos="102.52" arrivalSpeed="7.24" duration="15.00" routeLength="97.42" waitSteps="0" rerouteNo="1" devices="tripinfo_92380_92380_392 routing_92380_92380_392 hbefa_92380_92380_392" vType="DEFAULT_VEHTYPE" vaporized="">
        <emissions CO_abs="176.511232" CO2_abs="18753.491395" HC_abs="5.776307" PMx_abs="1.702553" NOx_abs="35.685542" fuel_abs="7.476726"/>
    </tripinfo>
    <tripinfo id="251564_251564_457" depart="27002.00" departLane="51113317_0" departPos="5.10" departSpeed="0.00" departDelay="0.00" arrival="27015.00" arrivalLane="51113317_0" arrivalPos="125.08" arrivalSpeed="12.67" duration="13.00" routeLength="119.98" waitSteps="0" rerouteNo="1" devices="tripinfo_251564_251564_457 routing_251564_251564_457 hbefa_251564_251564_457" vType="DEFAULT_VEHTYPE" vaporized="">
        <emissions CO_abs="443.592767" CO2_abs="36692.159007" HC_abs="11.270982" PMx_abs="4.002521" NOx_abs="75.158527" fuel_abs="14.628600"/>
    </tripinfo>
    <tripinfo id="84049_84049_390" depart="27006.00" departLane="9207803_0" departPos="5.10" departSpeed="0.00" departDelay="6.00" arrival="27016.00" arrivalLane="9207803_0" arrivalPos="69.23" arrivalSpeed="7.48" duration="10.00" routeLength="64.13" waitSteps="0" rerouteNo="1" devices="tripinfo_84049_84049_390 routing_84049_84049_390 hbefa_84049_84049_390" vType="DEFAULT_VEHTYPE" vaporized="">
        <emissions CO_abs="177.677216" CO2_abs="17213.175200" HC_abs="5.430021" PMx_abs="1.666758" NOx_abs="33.395062" fuel_abs="6.862626"/>
    </tripinfo>
    <tripinfo id="105964_105964_399" depart="27007.00" departLane="145474196#1_0" departPos="5.10" departSpeed="0.00" departDelay="7.00" arrival="27017.00" arrivalLane="145474196#1_0" arrivalPos="94.12" arrivalSpeed="13.52" duration="10.00" routeLength="89.02" waitSteps="0" rerouteNo="1" devices="tripinfo_105964_105964_399 routing_105964_105964_399 hbefa_105964_105964_399" vType="DEFAULT_VEHTYPE" vaporized="">
        <emissions CO_abs="400.555136" CO2_abs="32401.168546" HC_abs="10.220700" PMx_abs="3.454163" NOx_abs="66.248770" fuel_abs="12.917846"/>
    </tripinfo>
    <tripinfo id="75851_75851_386" depart="27002.00" departLane="28542995#2_0" departPos="5.10" departSpeed="0.00" departDelay="2.00" arrival="27018.00" arrivalLane="23493181#0_0" arrivalPos="88.20" arrivalSpeed="12.11" duration="16.00" routeLength="144.84" waitSteps="0" rerouteNo="1" devices="tripinfo_75851_75851_386 routing_75851_75851_386 hbefa_75851_75851_386" vType="DEFAULT_VEHTYPE" vaporized="">
        <emissions CO_abs="565.091509" CO2_abs="47812.300806" HC_abs="14.561446" PMx_abs="5.156989" NOx_abs="97.633315" fuel_abs="19.062029"/>
    </tripinfo>
    <tripinfo id="232041_232041_451" depart="27002.00" departLane="28523795_0" departPos="5.10" departSpeed="0.00" departDelay="0.00" arrival="27019.00" arrivalLane="28523795_0" arrivalPos="192.02" arrivalSpeed="13.89" duration="17.00" routeLength="186.92" waitSteps="0" rerouteNo="1" devices="tripinfo_232041_232041_451 routing_232041_232041_451 hbefa_232041_232041_451" vType="DEFAULT_VEHTYPE" vaporized="">
        <emissions CO_abs="549.731145" CO2_abs="46536.404402" HC_abs="14.003374" PMx_abs="4.988944" NOx_abs="95.219943" fuel_abs="18.553351"/>
    </tripinfo>
    <tripinfo id="135880_135880_411" depart="27000.00" departLane="150039002#2_0" departPos="5.10" departSpeed="0.00" departDelay="0.00" arrival="27022.00" arrivalLane="150039002#2_0" arrivalPos="249.40" arrivalSpeed="12.82" duration="22.00" routeLength="244.30" waitSteps="0" rerouteNo="1" devices="tripinfo_135880_135880_411 routing_135880_135880_411 hbefa_135880_135880_411" vType="DEFAULT_VEHTYPE" vaporized="">
        <emissions CO_abs="588.279742" CO2_abs="52764.903015" HC_abs="15.390353" PMx_abs="5.601274" NOx_abs="107.169117" fuel_abs="21.036560"/>
    </tripinfo>
    <tripinfo id="140107_140107_414" depart="27000.00" departLane="154755117_0" departPos="5.10" departSpeed="0.00" departDelay="0.00" arrival="27022.00" arrivalLane="23800191#0_0" arrivalPos="143.94" arrivalSpeed="13.03" duration="22.00" routeLength="212.88" waitSteps="0" rerouteNo="1" devices="tripinfo_140107_140107_414 routing_140107_140107_414 hbefa_140107_140107_414" vType="DEFAULT_VEHTYPE" vaporized="">
        <emissions CO_abs="554.964616" CO2_abs="46780.178124" HC_abs="14.336435" PMx_abs="5.061034" NOx_abs="95.486080" fuel_abs="18.650537"/>
    </tripinfo>
    <tripinfo id="219187_219187_446" depart="27000.00" departLane="144935690_0" departPos="5.10" departSpeed="0.00" departDelay="0.00" arrival="27022.00" arrivalLane="25997632_0" arrivalPos="136.14" arrivalSpeed="13.47" duration="22.00" routeLength="241.37" waitSteps="0" rerouteNo="1" devices="tripinfo_219187_219187_446 routing_219187_219187_446 hbefa_219187_219187_446" vType="DEFAULT_VEHTYPE" vaporized="">
        <emissions CO_abs="699.471291" CO2_abs="61879.502031" HC_abs="18.223705" PMx_abs="6.442194" NOx_abs="125.612933" fuel_abs="24.670410"/>
    </tripinfo>
    <tripinfo id="206737_206737_440" depart="27007.00" departLane="-29206900_0" departPos="5.10" departSpeed="0.00" departDelay="0.00" arrival="27022.00" arrivalLane="29207110_0" arrivalPos="28.94" arrivalSpeed="13.77" duration="15.00" routeLength="103.46" waitSteps="0" rerouteNo="1" devices="tripinfo_206737_206737_440 routing_206737_206737_440 hbefa_206737_206737_440" vType="DEFAULT_VEHTYPE" vaporized="">
        <emissions CO_abs="577.149101" CO2_abs="42173.783965" HC_abs="13.858191" PMx_abs="5.000601" NOx_abs="88.596917" fuel_abs="16.814034"/>
    </tripinfo>
    <tripinfo id="110327_110327_401" depart="27000.00" departLane="53212166#0_0" departPos="5.10" departSpeed="0.00" departDelay="0.00" arrival="27024.00" arrivalLane="28542995#2_2" arrivalPos="61.74" arrivalSpeed="13.29" duration="24.00" routeLength="231.82" waitSteps="0" rerouteNo="1" devices="tripinfo_110327_110327_401 routing_110327_110327_401 hbefa_110327_110327_401" vType="DEFAULT_VEHTYPE" vaporized="">
        <emissions CO_abs="577.661681" CO2_abs="52575.450056" HC_abs="15.448644" PMx_abs="5.552268" NOx_abs="106.185554" fuel_abs="20.961027"/>
    </tripinfo>
    <tripinfo id="225242_225242_449" depart="27000.00" departLane="154755124_0" departPos="5.10" departSpeed="0.00" departDelay="0.00" arrival="27024.00" arrivalLane="4380937#3_1" arrivalPos="72.76" arrivalSpeed="13.26" duration="24.00" routeLength="189.24" waitSteps="0" rerouteNo="1" devices="tripinfo_225242_225242_449 routing_225242_225242_449 hbefa_225242_225242_449" vType="DEFAULT_VEHTYPE" vaporized="">
        <emissions CO_abs="682.179385" CO2_abs="55050.694140" HC_abs="17.384295" PMx_abs="6.206013" NOx_abs="113.193465" fuel_abs="21.947862"/>
    </tripinfo>
    <tripinfo id="148867_148867_417" depart="27006.00" departLane="3065455_0" departPos="5.10" departSpeed="0.00" departDelay="6.00" arrival="27024.00" arrivalLane="23800191#0_0" arrivalPos="143.94" arrivalSpeed="12.71" duration="18.00" routeLength="194.49" waitSteps="0" rerouteNo="1" devices="tripinfo_148867_148867_417 routing_148867_148867_417 hbefa_148867_148867_417" vType="DEFAULT_VEHTYPE" vaporized="">
        <emissions CO_abs="540.068582" CO2_abs="47810.362663" HC_abs="14.198089" PMx_abs="4.969451" NOx_abs="96.809423" fuel_abs="19.061259"/>
    </tripinfo>
    <tripinfo id="225541_225541_450" depart="27000.00" departLane="9207803_0" departPos="5.10" departSpeed="0.00" departDelay="0.00" arrival="27024.00" arrivalLane="154755073#3_0" arrivalPos="102.52" arrivalSpeed="7.41" duration="24.00" routeLength="166.65" waitSteps="0" rerouteNo="1" devices="tripinfo_225541_225541_450 routing_225541_225541_450 hbefa_225541_225541_450" vType="DEFAULT_VEHTYPE" vaporized="">
        <emissions CO_abs="306.486145" CO2_abs="37021.569948" HC_abs="10.727517" PMx_abs="3.292360" NOx_abs="69.432982" fuel_abs="14.759927"/>
    </tripinfo>
    <tripinfo id="141415_141415_415" depart="27003.00" departLane="150039002#2_0" departPos="5.10" departSpeed="0.00" departDelay="3.00" arrival="27025.00" arrivalLane="150039002#2_0" arrivalPos="249.40" arrivalSpeed="13.46" duration="22.00" routeLength="244.30" waitSteps="0" rerouteNo="1" devices="tripinfo_141415_141415_415 routing_141415_141415_415 hbefa_141415_141415_415" vType="DEFAULT_VEHTYPE" vaporized="">
        <emissions CO_abs="589.626376" CO2_abs="54432.114088" HC_abs="15.740069" PMx_abs="5.701269" NOx_abs="109.918103" fuel_abs="21.701253"/>
    </tripinfo>
    <tripinfo id="136596_136596_411" depart="27003.00" departLane="131651824_0" departPos="5.10" departSpeed="0.00" departDelay="3.00" arrival="27025.00" arrivalLane="4400211#0_0" arrivalPos="197.56" arrivalSpeed="13.51" duration="22.00" routeLength="253.49" waitSteps="0" rerouteNo="1" devices="tripinfo_136596_136596_411 routing_136596_136596_411 hbefa_136596_136596_411" vType="DEFAULT_VEHTYPE" vaporized="">
        <emissions CO_abs="627.080162" CO2_abs="58548.664458" HC_abs="16.707745" PMx_abs="6.243862" NOx_abs="118.466309" fuel_abs="23.342460"/>
    </tripinfo>
    <tripinfo id="220353_220353_447" depart="27001.00" departLane="-165515969#3_0" departPos="5.10" departSpeed="0.00" departDelay="0.00" arrival="27025.00" arrivalLane="-165511531#0_0" arrivalPos="53.73" arrivalSpeed="13.68" duration="24.00" routeLength="345.81" waitSteps="0" rerouteNo="1" devices="tripinfo_220353_220353_447 routing_220353_220353_447 hbefa_220353_220353_447" vType="DEFAULT_VEHTYPE" vaporized="">
        <emissions CO_abs="2246.597846" CO2_abs="134007.159766" HC_abs="44.912552" PMx_abs="17.477438" NOx_abs="298.940967" fuel_abs="53.426632"/>
    </tripinfo>
    <tripinfo id="68737_68737_381" depart="27014.00" departLane="23493176_0" departPos="5.10" departSpeed="0.00" departDelay="14.00" arrival="27026.00" arrivalLane="23493176_0" arrivalPos="83.31" arrivalSpeed="8.13" duration="12.00" routeLength="78.21" waitSteps="0" rerouteNo="1" devices="tripinfo_68737_68737_381 routing_68737_68737_381 hbefa_68737_68737_381" vType="DEFAULT_VEHTYPE" vaporized="">
        <emissions CO_abs="180.583289" CO2_abs="17239.965566" HC_abs="5.484846" PMx_abs="1.655680" NOx_abs="33.454237" fuel_abs="6.873307"/>
    </tripinfo>
    <tripinfo id="134089_134089_411" depart="27000.00" departLane="23800191#2_0" departPos="5.10" departSpeed="0.00" departDelay="0.00" arrival="27027.00" arrivalLane="4400211#0_0" arrivalPos="197.56" arrivalSpeed="12.91" duration="27.00" routeLength="291.90" waitSteps="0" rerouteNo="1" devices="tripinfo_134089_134089_411 routing_134089_134089_411 hbefa_134089_134089_411" vType="DEFAULT_VEHTYPE" vaporized="">
        <emissions CO_abs="445.197723" CO2_abs="55558.222639" HC_abs="14.762810" PMx_abs="4.841124" NOx_abs="105.934748" fuel_abs="22.150218"/>
    </tripinfo>
    <tripinfo id="188835_188835_434" depart="27006.00" departLane="187965762#1_0" departPos="5.10" departSpeed="0.00" departDelay="6.00" arrival="27029.00" arrivalLane="187965762#2_0" arrivalPos="85.18" arrivalSpeed="8.16" duration="23.00" routeLength="168.92" waitSteps="0" rerouteNo="1" devices="tripinfo_188835_188835_434 routing_188835_188835_434 hbefa_188835_188835_434" vType="DEFAULT_VEHTYPE" vaporized="">
        <emissions CO_abs="251.112671" CO2_abs="28717.114984" HC_abs="8.460956" PMx_abs="2.625276" NOx_abs="54.458987" fuel_abs="11.449069"/>
    </tripinfo>
    <tripinfo id="122617_122617_406" depart="27000.00" departLane="131651824_0" departPos="5.10" departSpeed="0.00" departDelay="0.00" arrival="27029.00" arrivalLane="130875842_0" arrivalPos="81.21" arrivalSpeed="13.12" duration="29.00" routeLength="334.70" waitSteps="0" rerouteNo="1" devices="tripinfo_122617_122617_406 routing_122617_122617_406 hbefa_122617_122617_406" vType="DEFAULT_VEHTYPE" vaporized="">
        <emissions CO_abs="776.050836" CO2_abs="71222.934435" HC_abs="20.565529" PMx_abs="7.451385" NOx_abs="144.072477" fuel_abs="28.395496"/>
    </tripinfo>
    <tripinfo id="84113_84113_390" depart="27000.00" departLane="150031205#0_0" departPos="5.10" departSpeed="0.00" departDelay="0.00" arrival="27029.00" arrivalLane="23471158#10_0" arrivalPos="144.68" arrivalSpeed="26.60" duration="29.00" routeLength="462.65" waitSteps="0" rerouteNo="1" devices="tripinfo_84113_84113_390 routing_84113_84113_390 hbefa_84113_84113_390" vType="DEFAULT_VEHTYPE" vaporized="">
        <emissions CO_abs="3338.217932" CO2_abs="189000.645468" HC_abs="64.206464" PMx_abs="24.952897" NOx_abs="426.466192" fuel_abs="75.351743"/>
    </tripinfo>
    <tripinfo id="118681_118681_405" depart="27000.00" departLane="23471158#6_0" departPos="5.10" departSpeed="0.00" departDelay="0.00" arrival="27030.00" arrivalLane="32856811#2_0" arrivalPos="144.91" arrivalSpeed="13.88" duration="30.00" routeLength="453.34" waitSteps="0" rerouteNo="1" devices="tripinfo_118681_118681_405 routing_118681_118681_405 hbefa_118681_118681_405" vType="DEFAULT_VEHTYPE" vaporized="">
        <emissions CO_abs="2081.525525" CO2_abs="129195.015135" HC_abs="42.344480" PMx_abs="16.217374" NOx_abs="284.809723" fuel_abs="51.508113"/>
    </tripinfo>
    <tripinfo id="187318_187318_433" depart="27013.00" departLane="-83823403#2_0" departPos="5.10" departSpeed="0.00" departDelay="0.00" arrival="27031.00" arrivalLane="-83823403#2_0" arrivalPos="184.87" arrivalSpeed="13.40" duration="18.00" routeLength="179.77" waitSteps="0" rerouteNo="1" devices="tripinfo_187318_187318_433 routing_187318_187318_433 hbefa_187318_187318_433" vType="DEFAULT_VEHTYPE" vaporized="">
        <emissions CO_abs="495.374582" CO2_abs="42800.366828" HC_abs="12.947149" PMx_abs="4.522933" NOx_abs="86.910044" fuel_abs="17.063850"/>
    </tripinfo>
    <tripinfo id="104726_104726_398" depart="27000.00" departLane="23471158#5_0" departPos="5.10" departSpeed="0.00" departDelay="0.00" arrival="27032.00" arrivalLane="32856811#2_0" arrivalPos="144.91" arrivalSpeed="13.55" duration="32.00" routeLength="464.21" waitSteps="0" rerouteNo="1" devices="tripinfo_104726_104726_398 routing_104726_104726_398 hbefa_104726_104726_398" vType="DEFAULT_VEHTYPE" vaporized="">
        <emissions CO_abs="2024.624966" CO2_abs="131388.477123" HC_abs="42.405371" PMx_abs="16.305100" NOx_abs="286.715856" fuel_abs="52.382608"/>
    </tripinfo>
    <tripinfo id="103637_103637_397" depart="27000.00" departLane="145474196#1_0" departPos="5.10" departSpeed="0.00" departDelay="0.00" arrival="27032.00" arrivalLane="150039002#2_1" arrivalPos="249.40" arrivalSpeed="13.73" duration="32.00" routeLength="361.28" waitSteps="0" rerouteNo="1" devices="tripinfo_103637_103637_397 routing_103637_103637_397 hbefa_103637_103637_397" vType="DEFAULT_VEHTYPE" vaporized="">
        <emissions CO_abs="988.147516" CO2_abs="77804.113345" HC_abs="23.787915" PMx_abs="8.921378" NOx_abs="162.490974" fuel_abs="31.019307"/>
    </tripinfo>
    <tripinfo id="212444_212444_443" depart="27003.00" departLane="166155712#0_0" departPos="5.10" departSpeed="0.00" departDelay="0.00" arrival="27032.00" arrivalLane="33469672_0" arrivalPos="142.78" arrivalSpeed="12.64" duration="29.00" routeLength="317.06" waitSteps="0" rerouteNo="1" devices="tripinfo_212444_212444_443 routing_212444_212444_443 hbefa_212444_212444_443" vType="DEFAULT_VEHTYPE" vaporized="">
        <emissions CO_abs="930.917833" CO2_abs="76504.988270" HC_abs="23.190623" PMx_abs="8.440376" NOx_abs="157.797964" fuel_abs="30.501365"/>
    </tripinfo>
    <tripinfo id="144652_144652_416" depart="27000.00" departLane="3065455_0" departPos="5.10" departSpeed="0.00" departDelay="0.00" arrival="27033.00" arrivalLane="130659365_0" arrivalPos="223.21" arrivalSpeed="8.42" duration="33.00" routeLength="365.42" waitSteps="0" rerouteNo="1" devices="tripinfo_144652_144652_416 routing_144652_144652_416 hbefa_144652_144652_416" vType="DEFAULT_VEHTYPE" vaporized="">
        <emissions CO_abs="549.244496" CO2_abs="64077.345697" HC_abs="17.141707" PMx_abs="5.992853" NOx_abs="124.029411" fuel_abs="25.546662"/>
    </tripinfo>
    <tripinfo id="208001_208001_441" depart="27001.00" departLane="-83823403#2_0" departPos="5.10" departSpeed="0.00" departDelay="0.00" arrival="27034.00" arrivalLane="23015529#0_0" arrivalPos="184.87" arrivalSpeed="12.89" duration="33.00" routeLength="364.64" waitSteps="0" rerouteNo="1" devices="tripinfo_208001_208001_441 routing_208001_208001_441 hbefa_208001_208001_441" vType="DEFAULT_VEHTYPE" vaporized="">
        <emissions CO_abs="930.640510" CO2_abs="77317.639459" HC_abs="23.281560" PMx_abs="8.498564" NOx_abs="159.320087" fuel_abs="30.825357"/>
    </tripinfo>
    <tripinfo id="217202_217202_446" depart="27007.00" departLane="-83823403#2_0" departPos="5.10" departSpeed="0.00" departDelay="0.00" arrival="27034.00" arrivalLane="23015533_0" arrivalPos="110.79" arrivalSpeed="12.80" duration="27.00" routeLength="290.56" waitSteps="0" rerouteNo="1" devices="tripinfo_217202_217202_446 routing_217202_217202_446 hbefa_217202_217202_446" vType="DEFAULT_VEHTYPE" vaporized="">
        <emissions CO_abs="740.682024" CO2_abs="69320.158788" HC_abs="20.009595" PMx_abs="7.094415" NOx_abs="139.353013" fuel_abs="27.636887"/>
    </tripinfo>
    <tripinfo id="146563_146563_416" depart="27004.00" departLane="129833340#2_0" departPos="5.10" departSpeed="0.00" departDelay="4.00" arrival="27036.00" arrivalLane="154755096_0" arrivalPos="66.91" arrivalSpeed="12.93" duration="32.00" routeLength="417.33" waitSteps="0" rerouteNo="1" devices="tripinfo_146563_146563_416 routing_146563_146563_416 hbefa_146563_146563_416" vType="DEFAULT_VEHTYPE" vaporized="">
        <emissions CO_abs="2412.596318" CO2_abs="141486.975149" HC_abs="48.217818" PMx_abs="19.071578" NOx_abs="317.362001" fuel_abs="56.408711"/>
    </tripinfo>
    <tripinfo id="103310_103310_397" depart="27000.00" departLane="83703645_0" departPos="5.10" departSpeed="0.00" departDelay="0.00" arrival="27037.00" arrivalLane="23493177#0_0" arrivalPos="166.52" arrivalSpeed="8.22" duration="37.00" routeLength="279.85" waitSteps="0" rerouteNo="1" devices="tripinfo_103310_103310_397 routing_103310_103310_397 hbefa_103310_103310_397" vType="DEFAULT_VEHTYPE" vaporized="">
        <emissions CO_abs="431.028789" CO2_abs="51718.743825" HC_abs="14.920550" PMx_abs="4.473893" NOx_abs="97.327542" fuel_abs="20.619464"/>
    </tripinfo>
    <tripinfo id="238887_238887_451" depart="27010.00" departLane="-83823403#2_0" departPos="5.10" departSpeed="0.00" departDelay="0.00" arrival="27037.00" arrivalLane="23015533_0" arrivalPos="110.79" arrivalSpeed="12.89" duration="27.00" routeLength="290.56" waitSteps="0" rerouteNo="1" devices="tripinfo_238887_238887_451 routing_238887_238887_451 hbefa_238887_238887_451" vType="DEFAULT_VEHTYPE" vaporized="">
        <emissions CO_abs="897.241862" CO2_abs="70875.346770" HC_abs="21.785201" PMx_abs="8.174446" NOx_abs="147.859818" fuel_abs="28.256912"/>
    </tripinfo>
    <tripinfo id="154499_154499_420" depart="27000.00" departLane="28542995#0_0" departPos="5.10" departSpeed="0.00" departDelay="0.00" arrival="27039.00" arrivalLane="23493260#4_1" arrivalPos="126.60" arrivalSpeed="12.98" duration="39.00" routeLength="435.19" waitSteps="0" rerouteNo="1" devices="tripinfo_154499_154499_420 routing_154499_154499_420 hbefa_154499_154499_420" vType="DEFAULT_VEHTYPE" vaporized="">
        <emissions CO_abs="959.961338" CO2_abs="88570.578100" HC_abs="25.924676" PMx_abs="9.042937" NOx_abs="177.966377" fuel_abs="35.311734"/>
    </tripinfo>
    <tripinfo id="138122_138122_412" depart="27009.00" departLane="131651824_0" departPos="5.10" departSpeed="0.00" departDelay="9.00" arrival="27039.00" arrivalLane="130875842_0" arrivalPos="81.21" arrivalSpeed="13.62" duration="30.00" routeLength="334.70" waitSteps="0" rerouteNo="1" devices="tripinfo_138122_138122_412 routing_138122_138122_412 hbefa_138122_138122_412" vType="DEFAULT_VEHTYPE" vaporized="">
        <emissions CO_abs="926.994629" CO2_abs="80035.341713" HC_abs="23.521104" PMx_abs="8.807970" NOx_abs="164.319472" fuel_abs="31.908866"/>
    </tripinfo>
    <tripinfo id="218769_218769_446" depart="27003.00" departLane="-55940134_0" departPos="5.10" departSpeed="0.00" departDelay="3.00" arrival="27040.00" arrivalLane="-144935692#1_1" arrivalPos="103.61" arrivalSpeed="13.06" duration="37.00" routeLength="447.77" waitSteps="0" rerouteNo="1" devices="tripinfo_218769_218769_446 routing_218769_218769_446 hbefa_218769_218769_446" vType="DEFAULT_VEHTYPE" vaporized="">
        <emissions CO_abs="645.794873" CO2_abs="68496.995946" HC_abs="18.664862" PMx_abs="6.641252" NOx_abs="135.073669" fuel_abs="27.308711"/>
    </tripinfo>
    <tripinfo id="171544_171544_426" depart="27000.00" departLane="187965762#1_0" departPos="5.10" departSpeed="0.00" departDelay="0.00" arrival="27040.00" arrivalLane="23800191#0_0" arrivalPos="143.94" arrivalSpeed="12.82" duration="40.00" routeLength="368.51" waitSteps="0" rerouteNo="1" devices="tripinfo_171544_171544_426 routing_171544_171544_426 hbefa_171544_171544_426" vType="DEFAULT_VEHTYPE" vaporized="">
        <emissions CO_abs="635.900449" CO2_abs="70207.073636" HC_abs="19.750487" PMx_abs="6.524198" NOx_abs="135.849525" fuel_abs="27.990484"/>
    </tripinfo>
    <tripinfo id="244420_244420_453" depart="27015.00" departLane="-165515969#3_0" departPos="5.10" departSpeed="0.00" departDelay="0.00" arrival="27041.00" arrivalLane="-165511531#0_0" arrivalPos="53.73" arrivalSpeed="13.57" duration="26.00" routeLength="345.81" waitSteps="0" rerouteNo="1" devices="tripinfo_244420_244420_453 routing_244420_244420_453 hbefa_244420_244420_453" vType="DEFAULT_VEHTYPE" vaporized="">
        <emissions CO_abs="2033.573008" CO2_abs="126512.155158" HC_abs="42.003080" PMx_abs="15.999940" NOx_abs="278.676779" fuel_abs="50.438476"/>
    </tripinfo>
    <tripinfo id="197472_197472_436" depart="27006.00" departLane="23800191#2_0" departPos="5.10" departSpeed="0.00" departDelay="6.00" arrival="27042.00" arrivalLane="130875842_0" arrivalPos="81.21" arrivalSpeed="12.66" duration="36.00" routeLength="373.11" waitSteps="0" rerouteNo="1" devices="tripinfo_197472_197472_436 routing_197472_197472_436 hbefa_197472_197472_436" vType="DEFAULT_VEHTYPE" vaporized="">
        <emissions CO_abs="1064.706693" CO2_abs="85993.484304" HC_abs="26.294320" PMx_abs="9.629098" NOx_abs="178.117596" fuel_abs="34.284281"/>
    </tripinfo>
    <tripinfo id="224931_224931_449" depart="27026.00" departLane="-28523795_0" departPos="5.10" departSpeed="0.00" departDelay="0.00" arrival="27043.00" arrivalLane="-28523795_0" arrivalPos="192.02" arrivalSpeed="13.37" duration="17.00" routeLength="186.92" waitSteps="0" rerouteNo="1" devices="tripinfo_224931_224931_449 routing_224931_224931_449 hbefa_224931_224931_449" vType="DEFAULT_VEHTYPE" vaporized="">
        <emissions CO_abs="543.488120" CO2_abs="43739.336675" HC_abs="13.335968" PMx_abs="5.078810" NOx_abs="91.032958" fuel_abs="17.438203"/>
    </tripinfo>
    <tripinfo id="211099_211099_442" depart="27013.00" departLane="166155712#0_0" departPos="5.10" departSpeed="0.00" departDelay="0.00" arrival="27043.00" arrivalLane="33469672_0" arrivalPos="142.78" arrivalSpeed="13.73" duration="30.00" routeLength="317.06" waitSteps="0" rerouteNo="1" devices="tripinfo_211099_211099_442 routing_211099_211099_442 hbefa_211099_211099_442" vType="DEFAULT_VEHTYPE" vaporized="">
        <emissions CO_abs="945.645014" CO2_abs="79468.307838" HC_abs="23.897637" PMx_abs="8.592968" NOx_abs="163.025746" fuel_abs="31.682796"/>
    </tripinfo>
    <tripinfo id="245947_245947_454" depart="27016.00" departLane="-83823403#2_0" departPos="5.10" departSpeed="0.00" departDelay="0.00" arrival="27043.00" arrivalLane="23015533_0" arrivalPos="110.79" arrivalSpeed="13.14" duration="27.00" routeLength="290.56" waitSteps="0" rerouteNo="1" devices="tripinfo_245947_245947_454 routing_245947_245947_454 hbefa_245947_245947_454" vType="DEFAULT_VEHTYPE" vaporized="">
        <emissions CO_abs="883.723259" CO2_abs="68397.694125" HC_abs="21.247316" PMx_abs="7.899402" NOx_abs="143.119831" fuel_abs="27.269109"/>
    </tripinfo>
    <tripinfo id="100594_100594_396" depart="27000.00" departLane="36454807#3-AddedOnRampEdge_0" departPos="5.10" departSpeed="0.00" departDelay="0.00" arrival="27043.00" arrivalLane="23471158#9_0" arrivalPos="213.75" arrivalSpeed="27.44" duration="43.00" routeLength="496.50" waitSteps="1" rerouteNo="1" devices="tripinfo_100594_100594_396 routing_100594_100594_396 hbefa_100594_100594_396" vType="DEFAULT_VEHTYPE" vaporized="">
        <emissions CO_abs="3074.593553" CO2_abs="183625.627103" HC_abs="62.099419" PMx_abs="23.953146" NOx_abs="408.381151" fuel_abs="73.208765"/>
    </tripinfo>
    <tripinfo id="212327_212327_442" depart="27014.00" departLane="198147972_0" departPos="5.10" departSpeed="0.00" departDelay="0.00" arrival="27043.00" arrivalLane="4353628#1_0" arrivalPos="68.95" arrivalSpeed="13.43" duration="29.00" routeLength="339.08" waitSteps="0" rerouteNo="1" devices="tripinfo_212327_212327_442 routing_212327_212327_442 hbefa_212327_212327_442" vType="DEFAULT_VEHTYPE" vaporized="">
        <emissions CO_abs="521.354354" CO2_abs="60175.614801" HC_abs="16.090165" PMx_abs="5.618813" NOx_abs="116.907809" fuel_abs="23.991103"/>
    </tripinfo>
    <tripinfo id="95606_95606_394" depart="27000.00" departLane="8225148_0" departPos="5.10" departSpeed="0.00" departDelay="0.00" arrival="27044.00" arrivalLane="145261451_0" arrivalPos="86.92" arrivalSpeed="12.66" duration="44.00" routeLength="515.94" waitSteps="0" rerouteNo="1" devices="tripinfo_95606_95606_394 routing_95606_95606_394 hbefa_95606_95606_394" vType="DEFAULT_VEHTYPE" vaporized="">
        <emissions CO_abs="1203.305300" CO2_abs="105233.193657" HC_abs="30.668565" PMx_abs="11.407210" NOx_abs="215.452186" fuel_abs="41.954866"/>
    </tripinfo>
    <tripinfo id="184987_184987_431" depart="27000.00" departLane="-186463490#0_0" departPos="5.10" departSpeed="0.00" departDelay="0.00" arrival="27044.00" arrivalLane="-144935692#1_0" arrivalPos="103.61" arrivalSpeed="13.28" duration="44.00" routeLength="500.46" waitSteps="0" rerouteNo="1" devices="tripinfo_184987_184987_431 routing_184987_184987_431 hbefa_184987_184987_431" vType="DEFAULT_VEHTYPE" vaporized="">
        <emissions CO_abs="1234.329519" CO2_abs="105065.623272" HC_abs="31.311586" PMx_abs="11.202111" NOx_abs="215.093526" fuel_abs="41.888055"/>
    </tripinfo>