<?xml version="1.0" encoding="UTF-8"?>

<!-- generated on Tue Feb 25 09:32:11 2014 by SUMO sumo Version dev-SVN-r15641
<?xml version="1.0" encoding="UTF-8"?>

<configuration xmlns:xsi="http://www.w3.org/2001/XMLSchema-instance" xsi:noNamespaceSchemaLocation="http://sumo-sim.org/xsd/sumoConfiguration.xsd">

    <input>
        <net-file value="data/map.net.xml"/>
        <route-files value="data/map.rou.xml"/>
    </input>

    <output>
        <tripinfo-output value="data/maptripinfoLocal.out.xml"/>
        <save-state.prefix value="data/state"/>
    </output>

    <time>
        <begin value="27000"/>
        <end value="27900"/>
    </time>

    <processing>
        <route-steps value="200"/>
        <scale value="0.8"/>
        <time-to-teleport value="300"/>
        <lanechange.allow-swap value="true"/>
    </processing>

    <report>
        <verbose value="true"/>
        <no-warnings value="true"/>
        <no-step-log value="true"/>
    </report>

    <emissions>
        <device.hbefa.probability value="1"/>
    </emissions>

    <traci_server>
        <remote-port value="8814"/>
    </traci_server>

</configuration>
-->

<tripinfos>
    <tripinfo id="136022_136022_411" depart="27003.00" departLane="23800191#2_0" departPos="5.10" departSpeed="0.00" departDelay="3.00" arrival="27009.00" arrivalLane="23800191#2_0" arrivalPos="38.41" arrivalSpeed="11.03" duration="6.00" routeLength="33.31" waitSteps="0" rerouteNo="0" devices="tripinfo_136022_136022_411 hbefa_136022_136022_411" vType="DEFAULT_VEHTYPE" vaporized="">
        <emissions CO_abs="302.852057" CO2_abs="21540.313596" HC_abs="7.281735" PMx_abs="2.562505" NOx_abs="45.268001" fuel_abs="8.587789"/>
    </tripinfo>
    <tripinfo id="182087_182087_431" depart="27000.00" departLane="4380937#2_0" departPos="5.10" departSpeed="0.00" departDelay="0.00" arrival="27011.00" arrivalLane="4380937#3_0" arrivalPos="72.76" arrivalSpeed="13.21" duration="11.00" routeLength="103.50" waitSteps="0" rerouteNo="2" devices="tripinfo_182087_182087_431 hbefa_182087_182087_431" vType="DEFAULT_VEHTYPE" vaporized="">
        <emissions CO_abs="503.126781" CO2_abs="36878.123263" HC_abs="11.866019" PMx_abs="4.462353" NOx_abs="77.973131" fuel_abs="14.702739"/>
    </tripinfo>
    <tripinfo id="105435_105435_398" depart="27003.00" departLane="145474196#1_0" departPos="5.10" departSpeed="0.00" departDelay="3.00" arrival="27013.00" arrivalLane="145474196#1_0" arrivalPos="94.12" arrivalSpeed="12.72" duration="10.00" routeLength="89.02" waitSteps="0" rerouteNo="0" devices="tripinfo_105435_105435_398 hbefa_105435_105435_398" vType="DEFAULT_VEHTYPE" vaporized="">
        <emissions CO_abs="478.657321" CO2_abs="35723.353299" HC_abs="11.414619" PMx_abs="4.307568" NOx_abs="75.262310" fuel_abs="14.242351"/>
    </tripinfo>
    <tripinfo id="72912_72912_384" depart="27003.00" departLane="9207803_0" departPos="5.10" departSpeed="0.00" departDelay="3.00" arrival="27013.00" arrivalLane="9207803_0" arrivalPos="69.23" arrivalSpeed="7.93" duration="10.00" routeLength="64.13" waitSteps="0" rerouteNo="0" devices="tripinfo_72912_72912_384 hbefa_72912_72912_384" vType="DEFAULT_VEHTYPE" vaporized="">
        <emissions CO_abs="238.007979" CO2_abs="19644.877039" HC_abs="6.412620" PMx_abs="2.142327" NOx_abs="39.599849" fuel_abs="7.832107"/>
    </tripinfo>
    <tripinfo id="251564_251564_457" depart="27002.00" departLane="51113317_0" departPos="5.10" departSpeed="0.00" departDelay="0.00" arrival="27014.00" arrivalLane="51113317_0" arrivalPos="125.08" arrivalSpeed="13.38" duration="12.00" routeLength="119.98" waitSteps="0" rerouteNo="0" devices="tripinfo_251564_251564_457 hbefa_251564_251564_457" vType="DEFAULT_VEHTYPE" vaporized="">
        <emissions CO_abs="518.804745" CO2_abs="38073.472587" HC_abs="12.139720" PMx_abs="4.665816" NOx_abs="80.760164" fuel_abs="15.179307"/>
    </tripinfo>
    <tripinfo id="92380_92380_392" depart="27000.00" departLane="-154755073#3_0" departPos="5.10" departSpeed="0.00" departDelay="0.00" arrival="27015.00" arrivalLane="-154755073#3_0" arrivalPos="102.52" arrivalSpeed="7.72" duration="15.00" routeLength="97.42" waitSteps="0" rerouteNo="0" devices="tripinfo_92380_92380_392 hbefa_92380_92380_392" vType="DEFAULT_VEHTYPE" vaporized="">
        <emissions CO_abs="220.262817" CO2_abs="23695.632291" HC_abs="7.205933" PMx_abs="2.202583" NOx_abs="45.223220" fuel_abs="9.447081"/>
    </tripinfo>
    <tripinfo id="84049_84049_390" depart="27006.00" departLane="9207803_0" departPos="5.10" departSpeed="0.00" departDelay="6.00" arrival="27016.00" arrivalLane="9207803_0" arrivalPos="69.23" arrivalSpeed="8.02" duration="10.00" routeLength="64.13" waitSteps="0" rerouteNo="0" devices="tripinfo_84049_84049_390 hbefa_84049_84049_390" vType="DEFAULT_VEHTYPE" vaporized="">
        <emissions CO_abs="204.172872" CO2_abs="20258.077384" HC_abs="6.240388" PMx_abs="2.021352" NOx_abs="39.455486" fuel_abs="8.076581"/>
    </tripinfo>
    <tripinfo id="232041_232041_451" depart="27002.00" departLane="28523795_0" departPos="5.10" departSpeed="0.00" departDelay="0.00" arrival="27019.00" arrivalLane="28523795_0" arrivalPos="192.02" arrivalSpeed="12.72" duration="17.00" routeLength="186.92" waitSteps="0" rerouteNo="0" devices="tripinfo_232041_232041_451 hbefa_232041_232041_451" vType="DEFAULT_VEHTYPE" vaporized="">
        <emissions CO_abs="475.758949" CO2_abs="43429.914880" HC_abs="12.620152" PMx_abs="4.633365" NOx_abs="87.953893" fuel_abs="17.314843"/>
    </tripinfo>
    <tripinfo id="75851_75851_386" depart="27002.00" departLane="28542995#2_0" departPos="5.10" departSpeed="0.00" departDelay="2.00" arrival="27021.00" arrivalLane="23493181#0_0" arrivalPos="88.20" arrivalSpeed="8.64" duration="19.00" routeLength="144.84" waitSteps="0" rerouteNo="0" devices="tripinfo_75851_75851_386 hbefa_75851_75851_386" vType="DEFAULT_VEHTYPE" vaporized="">
        <emissions CO_abs="598.192036" CO2_abs="44524.908230" HC_abs="14.543146" PMx_abs="5.193308" NOx_abs="93.034940" fuel_abs="17.751392"/>
    </tripinfo>
    <tripinfo id="135880_135880_411" depart="27000.00" departLane="150039002#2_0" departPos="5.10" departSpeed="0.00" departDelay="0.00" arrival="27022.00" arrivalLane="150039002#2_0" arrivalPos="249.40" arrivalSpeed="13.71" duration="22.00" routeLength="244.30" waitSteps="0" rerouteNo="0" devices="tripinfo_135880_135880_411 hbefa_135880_135880_411" vType="DEFAULT_VEHTYPE" vaporized="">
        <emissions CO_abs="561.511728" CO2_abs="50944.899698" HC_abs="14.833884" PMx_abs="5.414971" NOx_abs="103.202824" fuel_abs="20.310953"/>
    </tripinfo>
    <tripinfo id="219187_219187_446" depart="27000.00" departLane="144935690_0" departPos="5.10" departSpeed="0.00" departDelay="0.00" arrival="27022.00" arrivalLane="25997632_0" arrivalPos="136.14" arrivalSpeed="13.07" duration="22.00" routeLength="241.37" waitSteps="0" rerouteNo="0" devices="tripinfo_219187_219187_446 hbefa_219187_219187_446" vType="DEFAULT_VEHTYPE" vaporized="">
        <emissions CO_abs="507.265360" CO2_abs="45944.713413" HC_abs="13.618729" PMx_abs="4.662742" NOx_abs="92.376240" fuel_abs="18.317453"/>
    </tripinfo>
    <tripinfo id="206737_206737_440" depart="27007.00" departLane="-29206900_0" departPos="5.10" departSpeed="0.00" departDelay="0.00" arrival="27022.00" arrivalLane="29207110_0" arrivalPos="28.94" arrivalSpeed="13.04" duration="15.00" routeLength="103.46" waitSteps="0" rerouteNo="0" devices="tripinfo_206737_206737_440 hbefa_206737_206737_440" vType="DEFAULT_VEHTYPE" vaporized="">
        <emissions CO_abs="483.415536" CO2_abs="38171.727090" HC_abs="12.238491" PMx_abs="4.291480" NOx_abs="78.619043" fuel_abs="15.218477"/>
    </tripinfo>
    <tripinfo id="110327_110327_401" depart="27000.00" departLane="53212166#0_0" departPos="5.10" departSpeed="0.00" departDelay="0.00" arrival="27023.00" arrivalLane="28542995#2_2" arrivalPos="61.74" arrivalSpeed="12.83" duration="23.00" routeLength="231.82" waitSteps="0" rerouteNo="0" devices="tripinfo_110327_110327_401 hbefa_110327_110327_401" vType="DEFAULT_VEHTYPE" vaporized="">
        <emissions CO_abs="545.175823" CO2_abs="52199.437126" HC_abs="15.064638" PMx_abs="5.551772" NOx_abs="104.614584" fuel_abs="20.811116"/>
    </tripinfo>
    <tripinfo id="141415_141415_415" depart="27003.00" departLane="150039002#2_0" departPos="5.10" departSpeed="0.00" departDelay="3.00" arrival="27024.00" arrivalLane="150039002#2_0" arrivalPos="249.40" arrivalSpeed="12.89" duration="21.00" routeLength="244.30" waitSteps="0" rerouteNo="0" devices="tripinfo_141415_141415_415 hbefa_141415_141415_415" vType="DEFAULT_VEHTYPE" vaporized="">
        <emissions CO_abs="625.126321" CO2_abs="54301.648288" HC_abs="15.957043" PMx_abs="6.004907" NOx_abs="111.378788" fuel_abs="21.649237"/>
    </tripinfo>
    <tripinfo id="225541_225541_450" depart="27000.00" departLane="9207803_0" departPos="5.10" departSpeed="0.00" departDelay="0.00" arrival="27024.00" arrivalLane="154755073#3_0" arrivalPos="102.52" arrivalSpeed="8.06" duration="24.00" routeLength="166.65" waitSteps="0" rerouteNo="0" devices="tripinfo_225541_225541_450 hbefa_225541_225541_450" vType="DEFAULT_VEHTYPE" vaporized="">
        <emissions CO_abs="330.449896" CO2_abs="37832.006208" HC_abs="11.136842" PMx_abs="3.463367" NOx_abs="71.629070" fuel_abs="15.083035"/>
    </tripinfo>
    <tripinfo id="148867_148867_417" depart="27006.00" departLane="3065455_0" departPos="5.10" departSpeed="0.00" departDelay="6.00" arrival="27024.00" arrivalLane="23800191#0_0" arrivalPos="143.94" arrivalSpeed="13.05" duration="18.00" routeLength="194.49" waitSteps="0" rerouteNo="0" devices="tripinfo_148867_148867_417 hbefa_148867_148867_417" vType="DEFAULT_VEHTYPE" vaporized="">
        <emissions CO_abs="571.191540" CO2_abs="46419.807796" HC_abs="14.205466" PMx_abs="5.205957" NOx_abs="95.913907" fuel_abs="18.506865"/>
    </tripinfo>
    <tripinfo id="225242_225242_449" depart="27000.00" departLane="154755124_0" departPos="5.10" departSpeed="0.00" departDelay="0.00" arrival="27025.00" arrivalLane="4380937#3_1" arrivalPos="72.76" arrivalSpeed="12.79" duration="25.00" routeLength="189.24" waitSteps="0" rerouteNo="1" devices="tripinfo_225242_225242_449 hbefa_225242_225242_449" vType="DEFAULT_VEHTYPE" vaporized="">
        <emissions CO_abs="660.301794" CO2_abs="53686.524048" HC_abs="17.007872" PMx_abs="5.959916" NOx_abs="109.923677" fuel_abs="21.403988"/>
    </tripinfo>
    <tripinfo id="136596_136596_411" depart="27003.00" departLane="131651824_0" departPos="5.10" departSpeed="0.00" departDelay="3.00" arrival="27026.00" arrivalLane="4400211#0_0" arrivalPos="197.56" arrivalSpeed="12.89" duration="23.00" routeLength="253.49" waitSteps="0" rerouteNo="0" devices="tripinfo_136596_136596_411 hbefa_136596_136596_411" vType="DEFAULT_VEHTYPE" vaporized="">
        <emissions CO_abs="641.284459" CO2_abs="54666.090149" HC_abs="16.405773" PMx_abs="5.764241" NOx_abs="111.574340" fuel_abs="21.794533"/>
    </tripinfo>
    <tripinfo id="220353_220353_447" depart="27001.00" departLane="-165515969#3_0" departPos="5.10" departSpeed="0.00" departDelay="0.00" arrival="27026.00" arrivalLane="-165511531#0_0" arrivalPos="53.73" arrivalSpeed="12.62" duration="25.00" routeLength="345.81" waitSteps="0" rerouteNo="1" devices="tripinfo_220353_220353_447 hbefa_220353_220353_447" vType="DEFAULT_VEHTYPE" vaporized="">
        <emissions CO_abs="2163.758853" CO2_abs="131800.043008" HC_abs="43.970285" PMx_abs="16.910539" NOx_abs="292.041174" fuel_abs="52.546683"/>
    </tripinfo>
    <tripinfo id="134089_134089_411" depart="27000.00" departLane="23800191#2_0" departPos="5.10" departSpeed="0.00" departDelay="0.00" arrival="27028.00" arrivalLane="4400211#0_0" arrivalPos="197.56" arrivalSpeed="12.65" duration="28.00" routeLength="291.90" waitSteps="0" rerouteNo="0" devices="tripinfo_134089_134089_411 hbefa_134089_134089_411" vType="DEFAULT_VEHTYPE" vaporized="">
        <emissions CO_abs="779.247889" CO2_abs="67648.242958" HC_abs="20.258774" PMx_abs="7.107008" NOx_abs="137.495866" fuel_abs="26.970317"/>
    </tripinfo>
    <tripinfo id="84113_84113_390" depart="27000.00" departLane="150031205#0_0" departPos="5.10" departSpeed="0.00" departDelay="0.00" arrival="27028.00" arrivalLane="23471158#10_0" arrivalPos="144.68" arrivalSpeed="27.15" duration="28.00" routeLength="462.65" waitSteps="2" rerouteNo="0" devices="tripinfo_84113_84113_390 hbefa_84113_84113_390" vType="DEFAULT_VEHTYPE" vaporized="">
        <emissions CO_abs="2939.909041" CO2_abs="167989.620090" HC_abs="57.059925" PMx_abs="21.705369" NOx_abs="377.159460" fuel_abs="66.974957"/>
    </tripinfo>
    <tripinfo id="162999_162999_422" depart="27000.00" departLane="150031230#2_0" departPos="5.10" departSpeed="0.00" departDelay="0.00" arrival="27029.00" arrivalLane="129833341#0_1" arrivalPos="129.85" arrivalSpeed="13.63" duration="29.00" routeLength="303.50" waitSteps="0" rerouteNo="0" devices="tripinfo_162999_162999_422 hbefa_162999_162999_422" vType="DEFAULT_VEHTYPE" vaporized="">
        <emissions CO_abs="809.860945" CO2_abs="70428.437646" HC_abs="20.859433" PMx_abs="7.758503" NOx_abs="143.947369" fuel_abs="28.078739"/>
    </tripinfo>
    <tripinfo id="188835_188835_434" depart="27006.00" departLane="187965762#1_0" departPos="5.10" departSpeed="0.00" departDelay="6.00" arrival="27030.00" arrivalLane="187965762#2_0" arrivalPos="85.18" arrivalSpeed="7.81" duration="24.00" routeLength="168.92" waitSteps="0" rerouteNo="0" devices="tripinfo_188835_188835_434 hbefa_188835_188835_434" vType="DEFAULT_VEHTYPE" vaporized="">
        <emissions CO_abs="278.180470" CO2_abs="31940.906293" HC_abs="9.408267" PMx_abs="2.793375" NOx_abs="60.347652" fuel_abs="12.734345"/>
    </tripinfo>
    <tripinfo id="187318_187318_433" depart="27013.00" departLane="-83823403#2_0" departPos="5.10" departSpeed="0.00" departDelay="0.00" arrival="27031.00" arrivalLane="-83823403#2_0" arrivalPos="184.87" arrivalSpeed="12.86" duration="18.00" routeLength="179.77" waitSteps="0" rerouteNo="0" devices="tripinfo_187318_187318_433 hbefa_187318_187318_433" vType="DEFAULT_VEHTYPE" vaporized="">
        <emissions CO_abs="539.163800" CO2_abs="46312.016894" HC_abs="14.050396" PMx_abs="4.912698" NOx_abs="94.147958" fuel_abs="18.463891"/>
    </tripinfo>
    <tripinfo id="212444_212444_443" depart="27003.00" departLane="166155712#0_0" departPos="5.10" departSpeed="0.00" departDelay="0.00" arrival="27031.00" arrivalLane="33469672_0" arrivalPos="142.78" arrivalSpeed="13.16" duration="28.00" routeLength="317.06" waitSteps="0" rerouteNo="0" devices="tripinfo_212444_212444_443 hbefa_212444_212444_443" vType="DEFAULT_VEHTYPE" vaporized="">
        <emissions CO_abs="790.280071" CO2_abs="69855.438177" HC_abs="20.461416" PMx_abs="7.438282" NOx_abs="142.302097" fuel_abs="27.850295"/>
    </tripinfo>
    <tripinfo id="122617_122617_406" depart="27000.00" departLane="131651824_0" departPos="5.10" departSpeed="0.00" departDelay="0.00" arrival="27031.00" arrivalLane="130875842_0" arrivalPos="81.21" arrivalSpeed="13.39" duration="31.00" routeLength="334.70" waitSteps="0" rerouteNo="0" devices="tripinfo_122617_122617_406 hbefa_122617_122617_406" vType="DEFAULT_VEHTYPE" vaporized="">
        <emissions CO_abs="867.114317" CO2_abs="76350.408967" HC_abs="22.535828" PMx_abs="8.086523" NOx_abs="155.317969" fuel_abs="30.439739"/>
    </tripinfo>
    <tripinfo id="104726_104726_398" depart="27000.00" departLane="23471158#5_0" departPos="5.10" departSpeed="0.00" departDelay="0.00" arrival="27032.00" arrivalLane="32856811#2_0" arrivalPos="144.91" arrivalSpeed="13.21" duration="32.00" routeLength="464.21" waitSteps="0" rerouteNo="0" devices="tripinfo_104726_104726_398 hbefa_104726_104726_398" vType="DEFAULT_VEHTYPE" vaporized="">
        <emissions CO_abs="2260.115117" CO2_abs="142282.872154" HC_abs="46.383192" PMx_abs="17.712631" NOx_abs="312.429834" fuel_abs="56.726046"/>
    </tripinfo>
    <tripinfo id="103637_103637_397" depart="27000.00" departLane="145474196#1_0" departPos="5.10" departSpeed="0.00" departDelay="0.00" arrival="27032.00" arrivalLane="150039002#2_1" arrivalPos="249.40" arrivalSpeed="13.08" duration="32.00" routeLength="361.28" waitSteps="0" rerouteNo="0" devices="tripinfo_103637_103637_397 hbefa_103637_103637_397" vType="DEFAULT_VEHTYPE" vaporized="">
        <emissions CO_abs="816.249411" CO2_abs="72923.337245" HC_abs="21.344783" PMx_abs="7.601173" NOx_abs="147.882828" fuel_abs="29.073419"/>
    </tripinfo>
    <tripinfo id="144652_144652_416" depart="27000.00" departLane="3065455_0" departPos="5.10" departSpeed="0.00" departDelay="0.00" arrival="27033.00" arrivalLane="130659365_0" arrivalPos="223.21" arrivalSpeed="7.69" duration="33.00" routeLength="365.42" waitSteps="0" rerouteNo="1" devices="tripinfo_144652_144652_416 hbefa_144652_144652_416" vType="DEFAULT_VEHTYPE" vaporized="">
        <emissions CO_abs="837.978999" CO2_abs="77793.446135" HC_abs="22.301148" PMx_abs="8.284216" NOx_abs="157.492756" fuel_abs="31.015058"/>
    </tripinfo>
    <tripinfo id="208001_208001_441" depart="27001.00" departLane="-83823403#2_0" departPos="5.10" departSpeed="0.00" departDelay="0.00" arrival="27034.00" arrivalLane="23015529#0_0" arrivalPos="184.87" arrivalSpeed="13.20" duration="33.00" routeLength="364.64" waitSteps="0" rerouteNo="0" devices="tripinfo_208001_208001_441 hbefa_208001_208001_441" vType="DEFAULT_VEHTYPE" vaporized="">
        <emissions CO_abs="869.537389" CO2_abs="79286.608722" HC_abs="23.026666" PMx_abs="8.207091" NOx_abs="160.259018" fuel_abs="31.610358"/>
    </tripinfo>
    <tripinfo id