<?xml version="1.0" encoding="UTF-8"?>

<!-- generated on Tue Apr 22 17:33:20 2014 by SUMO sumo Version 0.19.0
<?xml version="1.0" encoding="UTF-8"?>

<configuration xmlns:xsi="http://www.w3.org/2001/XMLSchema-instance" xsi:noNamespaceSchemaLocation="http://sumo-sim.org/xsd/sumoConfiguration.xsd">

    <input>
        <net-file value="data/map.net.xml"/>
        <route-files value="data/map.rou.xml"/>
    </input>

    <output>
        <tripinfo-output value="data/maptripinfo.out.xml"/>
        <save-state.prefix value="data/state"/>
    </output>

    <time>
        <begin value="27000"/>
        <end value="27900"/>
    </time>

    <processing>
        <route-steps value="200"/>
        <scale value="0.8"/>
        <time-to-teleport value="300"/>
        <lanechange.allow-swap value="true"/>
    </processing>

    <report>
        <verbose value="true"/>
        <no-warnings value="true"/>
        <no-step-log value="true"/>
    </report>

    <emissions>
        <device.hbefa.probability value="1"/>
    </emissions>

    <traci_server>
        <remote-port value="8814"/>
    </traci_server>

</configuration>
-->

<tripinfos>
    <tripinfo id="136022_136022_411" depart="27003.00" departLane="23800191#2_0" departPos="5.10" departSpeed="0.00" departDelay="3.00" arrival="27009.00" arrivalLane="23800191#2_0" arrivalPos="38.41" arrivalSpeed="9.04" duration="6.00" routeLength="33.31" waitSteps="0" rerouteNo="0" devices="tripinfo_136022_136022_411 hbefa_136022_136022_411" vType="DEFAULT_VEHTYPE" vaporized="">
        <emissions CO_abs="185.360283" CO2_abs="15770.136816" HC_abs="5.217217" PMx_abs="1.592998" NOx_abs="31.263366" fuel_abs="6.287308"/>
    </tripinfo>
    <tripinfo id="182087_182087_431" depart="27000.00" departLane="4380937#2_0" departPos="5.10" departSpeed="0.00" departDelay="0.00" arrival="27011.00" arrivalLane="4380937#3_0" arrivalPos="72.76" arrivalSpeed="13.21" duration="11.00" routeLength="67.66" waitSteps="0" rerouteNo="1" devices="tripinfo_182087_182087_431 hbefa_182087_182087_431" vType="DEFAULT_VEHTYPE" vaporized="">
        <emissions CO_abs="467.042524" CO2_abs="35540.168416" HC_abs="11.213918" PMx_abs="4.229650" NOx_abs="74.548515" fuel_abs="14.169318"/>
    </tripinfo>
    <tripinfo id="72912_72912_384" depart="27003.00" departLane="9207803_0" departPos="5.10" departSpeed="0.00" departDelay="3.00" arrival="27014.00" arrivalLane="9207803_0" arrivalPos="69.23" arrivalSpeed="7.48" duration="11.00" routeLength="64.13" waitSteps="0" rerouteNo="0" devices="tripinfo_72912_72912_384 hbefa_72912_72912_384" vType="DEFAULT_VEHTYPE" vaporized="">
        <emissions CO_abs="174.521191" CO2_abs="19840.267015" HC_abs="6.045338" PMx_abs="1.763416" NOx_abs="37.270443" fuel_abs="7.910007"/>
    </tripinfo>
    <tripinfo id="251564_251564_457" depart="27002.00" departLane="51113317_0" departPos="5.10" departSpeed="0.00" departDelay="0.00" arrival="27014.00" arrivalLane="51113317_0" arrivalPos="125.08" arrivalSpeed="13.85" duration="12.00" routeLength="119.98" waitSteps="0" rerouteNo="0" devices="tripinfo_251564_251564_457 hbefa_251564_251564_457" vType="DEFAULT_VEHTYPE" vaporized="">
        <emissions CO_abs="476.082170" CO2_abs="42750.275906" HC_abs="12.639294" PMx_abs="4.486427" NOx_abs="86.446502" fuel_abs="17.043880"/>
    </tripinfo>
    <tripinfo id="105435_105435_398" depart="27003.00" departLane="145474196#1_0" departPos="5.10" departSpeed="0.00" departDelay="3.00" arrival="27015.00" arrivalLane="145474196#1_0" arrivalPos="94.12" arrivalSpeed="11.77" duration="12.00" routeLength="89.02" waitSteps="0" rerouteNo="0" devices="tripinfo_105435_105435_398 hbefa_105435_105435_398" vType="DEFAULT_VEHTYPE" vaporized="">
        <emissions CO_abs="746.604061" CO2_abs="48577.666762" HC_abs="16.450825" PMx_abs="6.316873" NOx_abs="105.720505" fuel_abs="19.367163"/>
    </tripinfo>
    <tripinfo id="92380_92380_392" depart="27000.00" departLane="-154755073#3_0" departPos="5.10" departSpeed="0.00" departDelay="0.00" arrival="27015.00" arrivalLane="-154755073#3_0" arrivalPos="102.52" arrivalSpeed="7.58" duration="15.00" routeLength="97.42" waitSteps="0" rerouteNo="0" devices="tripinfo_92380_92380_392 hbefa_92380_92380_392" vType="DEFAULT_VEHTYPE" vaporized="">
        <emissions CO_abs="235.384896" CO2_abs="22283.269325" HC_abs="6.983496" PMx_abs="2.320827" NOx_abs="43.720204" fuel_abs="8.883994"/>
    </tripinfo>
    <tripinfo id="84049_84049_390" depart="27006.00" departLane="9207803_0" departPos="5.10" departSpeed="0.00" departDelay="6.00" arrival="27016.00" arrivalLane="9207803_0" arrivalPos="69.23" arrivalSpeed="8.02" duration="10.00" routeLength="64.13" waitSteps="0" rerouteNo="0" devices="tripinfo_84049_84049_390 hbefa_84049_84049_390" vType="DEFAULT_VEHTYPE" vaporized="">
        <emissions CO_abs="165.327325" CO2_abs="18385.236870" HC_abs="5.587035" PMx_abs="1.639677" NOx_abs="34.730369" fuel_abs="7.329909"/>
    </tripinfo>
    <tripinfo id="105964_105964_399" depart="27007.00" departLane="145474196#1_0" departPos="5.10" departSpeed="0.00" departDelay="7.00" arrival="27017.00" arrivalLane="145474196#1_0" arrivalPos="94.12" arrivalSpeed="13.47" duration="10.00" routeLength="89.02" waitSteps="0" rerouteNo="0" devices="tripinfo_105964_105964_399 hbefa_105964_105964_399" vType="DEFAULT_VEHTYPE" vaporized="">
        <emissions CO_abs="588.991627" CO2_abs="39606.227537" HC_abs="13.099205" PMx_abs="5.017067" NOx_abs="85.634373" fuel_abs="15.790391"/>
    </tripinfo>
    <tripinfo id="232041_232041_451" depart="27002.00" departLane="28523795_0" departPos="5.10" departSpeed="0.00" departDelay="0.00" arrival="27019.00" arrivalLane="28523795_0" arrivalPos="192.02" arrivalSpeed="13.01" duration="17.00" routeLength="186.92" waitSteps="0" rerouteNo="0" devices="tripinfo_232041_232041_451 hbefa_232041_232041_451" vType="DEFAULT_VEHTYPE" vaporized="">
        <emissions CO_abs="520.068868" CO2_abs="43399.496539" HC_abs="13.147619" PMx_abs="4.670906" NOx_abs="89.012972" fuel_abs="17.302713"/>
    </tripinfo>
    <tripinfo id="135880_135880_411" depart="27000.00" departLane="150039002#2_0" departPos="5.10" departSpeed="0.00" departDelay="0.00" arrival="27022.00" arrivalLane="150039002#2_0" arrivalPos="249.40" arrivalSpeed="13.73" duration="22.00" routeLength="244.30" waitSteps="0" rerouteNo="0" devices="tripinfo_135880_135880_411 hbefa_135880_135880_411" vType="DEFAULT_VEHTYPE" vaporized="">
        <emissions CO_abs="569.971006" CO2_abs="57797.757673" HC_abs="16.169736" PMx_abs="5.766339" NOx_abs="114.725519" fuel_abs="23.043085"/>
    </tripinfo>
    <tripinfo id="219187_219187_446" depart="27000.00" departLane="144935690_0" departPos="5.10" departSpeed="0.00" departDelay="0.00" arrival="27022.00" arrivalLane="25997632_0" arrivalPos="136.14" arrivalSpeed="13.22" duration="22.00" routeLength="131.04" waitSteps="0" rerouteNo="2" devices="tripinfo_219187_219187_446 hbefa_219187_219187_446" vType="DEFAULT_VEHTYPE" vaporized="">
        <emissions CO_abs="579.141739" CO2_abs="49407.324373" HC_abs="14.772173" PMx_abs="5.403579" NOx_abs="101.247723" fuel_abs="19.697944"/>
    </tripinfo>
    <tripinfo id="206737_206737_440" depart="27007.00" departLane="-29206900_0" departPos="5.10" departSpeed="0.00" departDelay="0.00" arrival="27022.00" arrivalLane="29207110_0" arrivalPos="28.94" arrivalSpeed="11.13" duration="15.00" routeLength="23.84" waitSteps="0" rerouteNo="1" devices="tripinfo_206737_206737_440 hbefa_206737_206737_440" vType="DEFAULT_VEHTYPE" vaporized="">
        <emissions CO_abs="398.001059" CO2_abs="32077.294314" HC_abs="10.380094" PMx_abs="3.498276" NOx_abs="65.363919" fuel_abs="12.788720"/>
    </tripinfo>
    <tripinfo id="110327_110327_401" depart="27000.00" departLane="53212166#0_0" departPos="5.10" departSpeed="0.00" departDelay="0.00" arrival="27023.00" arrivalLane="28542995#2_2" arrivalPos="61.74" arrivalSpeed="13.01" duration="23.00" routeLength="56.64" waitSteps="0" rerouteNo="3" devices="tripinfo_110327_110327_401 hbefa_110327_110327_401" vType="DEFAULT_VEHTYPE" vaporized="">
        <emissions CO_abs="502.324256" CO2_abs="46587.931860" HC_abs="13.726174" PMx_abs="4.818394" NOx_abs="93.318011" fuel_abs="18.573893"/>
    </tripinfo>
    <tripinfo id="225242_225242_449" depart="27000.00" departLane="154755124_0" departPos="5.10" departSpeed="0.00" departDelay="0.00" arrival="27024.00" arrivalLane="4380937#3_1" arrivalPos="72.76" arrivalSpeed="12.79" duration="24.00" routeLength="67.66" waitSteps="0" rerouteNo="2" devices="tripinfo_225242_225242_449 hbefa_225242_225242_449" vType="DEFAULT_VEHTYPE" vaporized="">
        <emissions CO_abs="673.202501" CO2_abs="53735.817197" HC_abs="17.007732" PMx_abs="6.018925" NOx_abs="110.682693" fuel_abs="21.423640"/>
    </tripinfo>
    <tripinfo id="75851_75851_386" depart="27002.00" departLane="28542995#2_0" departPos="5.10" departSpeed="0.00" departDelay="2.00" arrival="27024.00" arrivalLane="23493181#0_0" arrivalPos="88.20" arrivalSpeed="12.71" duration="22.00" routeLength="83.10" waitSteps="0" rerouteNo="1" devices="tripinfo_75851_75851_386 hbefa_75851_75851_386" vType="DEFAULT_VEHTYPE" vaporized="">
        <emissions CO_abs="800.781207" CO2_abs="59272.451344" HC_abs="19.428633" PMx_abs="6.989038" NOx_abs="124.084571" fuel_abs="23.631008"/>
    </tripinfo>
    <tripinfo id="148867_148867_417" depart="27006.00" departLane="3065455_0" departPos="5.10" departSpeed="0.00" departDelay="6.00" arrival="27024.00" arrivalLane="23800191#0_0" arrivalPos="143.94" arrivalSpeed="13.68" duration="18.00" routeLength="138.84" waitSteps="0" rerouteNo="1" devices="tripinfo_148867_148867_417 hbefa_148867_148867_417" vType="DEFAULT_VEHTYPE" vaporized="">
        <emissions CO_abs="557.454659" CO2_abs="44421.770139" HC_abs="13.675286" PMx_abs="5.036560" NOx_abs="92.269347" fuel_abs="17.710278"/>
    </tripinfo>
    <tripinfo id="141415_141415_415" depart="27003.00" departLane="150039002#2_0" departPos="5.10" departSpeed="0.00" departDelay="3.00" arrival="27025.00" arrivalLane="150039002#2_0" arrivalPos="249.40" arrivalSpeed="13.50" duration="22.00" routeLength="244.30" waitSteps="0" rerouteNo="0" devices="tripinfo_141415_141415_415 hbefa_141415_141415_415" vType="DEFAULT_VEHTYPE" vaporized="">
        <emissions CO_abs="529.801720" CO2_abs="54110.694519" HC_abs="15.074392" PMx_abs="5.402931" NOx_abs="107.348020" fuel_abs="21.573110"/>
    </tripinfo>
    <tripinfo id="225541_225541_450" depart="27000.00" departLane="9207803_0" departPos="5.10" departSpeed="0.00" departDelay="0.00" arrival="27025.00" arrivalLane="154755073#3_0" arrivalPos="102.52" arrivalSpeed="7.98" duration="25.00" routeLength="97.42" waitSteps="0" rerouteNo="1" devices="tripinfo_225541_225541_450 hbefa_225541_225541_450" vType="DEFAULT_VEHTYPE" vaporized="">
        <emissions CO_abs="340.079814" CO2_abs="33520.314697" HC_abs="10.359738" PMx_abs="3.252929" NOx_abs="65.160312" fuel_abs="13.364030"/>
    </tripinfo>
    <tripinfo id="136596_136596_411" depart="27003.00" departLane="131651824_0" departPos="5.10" departSpeed="0.00" departDelay="3.00" arrival="27026.00" arrivalLane="4400211#0_0" arrivalPos="197.56" arrivalSpeed="11.47" duration="23.00" routeLength="192.46" waitSteps="0" rerouteNo="1" devices="tripinfo_136596_136596_411 hbefa_136596_136596_411" vType="DEFAULT_VEHTYPE" vaporized="">
        <emissions CO_abs="679.501065" CO2_abs="55301.737526" HC_abs="16.963287" PMx_abs="6.071219" NOx_abs="114.005126" fuel_abs="22.047954"/>
    </tripinfo>
    <tripinfo id="220353_220353_447" depart="27001.00" departLane="-165515969#3_0" departPos="5.10" departSpeed="0.00" departDelay="0.00" arrival="27027.00" arrivalLane="-165511531#0_0" arrivalPos="53.73" arrivalSpeed="13.18" duration="26.00" routeLength="48.63" waitSteps="0" rerouteNo="2" devices="tripinfo_220353_220353_447 hbefa_220353_220353_447" vType="DEFAULT_VEHTYPE" vaporized="">
        <emissions CO_abs="2165.458611" CO2_abs="129153.954862" HC_abs="43.666513" PMx_abs="17.037544" NOx_abs="288.216561" fuel_abs="51.491720"/>
    </tripinfo>
    <tripinfo id="134089_134089_411" depart="27000.00" departLane="23800191#2_0" departPos="5.10" departSpeed="0.00" departDelay="0.00" arrival="27028.00" arrivalLane="4400211#0_0" arrivalPos="197.56" arrivalSpeed="12.78" duration="28.00" routeLength="192.46" waitSteps="0" rerouteNo="2" devices="tripinfo_134089_134089_411 hbefa_134089_134089_411" vType="DEFAULT_VEHTYPE" vaporized="">
        <emissions CO_abs="793.739834" CO2_abs="63738.010655" HC_abs="19.685895" PMx_abs="7.119086" NOx_abs="131.865448" fuel_abs="25.411364"/>
    </tripinfo>
    <tripinfo id="162999_162999_422" depart="27000.00" departLane="150031230#2_0" departPos="5.10" departSpeed="0.00" departDelay="0.00" arrival="27029.00" arrivalLane="129833341#0_1" arrivalPos="129.85" arrivalSpeed="13.76" duration="29.00" routeLength="124.75" waitSteps="0" rerouteNo="1" devices="tripinfo_162999_162999_422 hbefa_162999_162999_422" vType="DEFAULT_VEHTYPE" vaporized="">
        <emissions CO_abs="900.506608" CO2_abs="74504.920651" HC_abs="22.598145" PMx_abs="8.243777" NOx_abs="153.432641" fuel_abs="29.703968"/>
    </tripinfo>
    <tripinfo id="84113_84113_390" depart="27000.00" departLane="150031205#0_0" departPos="5.10" departSpeed="0.00" departDelay="0.00" arrival="27029.00" arrivalLane="23471158#10_0" arrivalPos="144.68" arrivalSpeed="26.99" duration="29.00" routeLength="139.58" waitSteps="1" rerouteNo="3" devices="tripinfo_84113_84113_390 hbefa_84113_84113_390" vType="DEFAULT_VEHTYPE" vaporized="">
        <emissions CO_abs="2325.892528" CO2_abs="146481.077420" HC_abs="46.941795" PMx_abs="16.597747" NOx_abs="318.030595" fuel_abs="58.399864"/>
    </tripinfo>
    <tripinfo id="118681_118681_405" depart="27000.00" departLane="23471158#6_0" departPos="5.10" departSpeed="0.00" departDelay="0.00" arrival="27030.00" arrivalLane="32856811#2_0" arrivalPos="144.91" arrivalSpeed="13.53" duration="30.00" routeLength="139.81" waitSteps="0" rerouteNo="2" devices="tripinfo_118681_118681_405 hbefa_118681_118681_405" vType="DEFAULT_VEHTYPE" vaporized="">
        <emissions CO_abs="2194.294645" CO2_abs="134024.678370" HC_abs="44.173780" PMx_abs="16.931582" NOx_abs="296.585277" fuel_abs="53.433630"/>
    </tripinfo>
    <tripinfo id="188835_188835_434" depart="27006.00" departLane="187965762#1_0" departPos="5.10" departSpeed="0.00" departDelay="6.00" arrival="27030.00" arrivalLane="187965762#2_0" arrivalPos="85.18" arrivalSpeed="8.16" duration="24.00" routeLength="80.08" waitSteps="0" rerouteNo="1" devices="tripinfo_188835_188835_434 hbefa_188835_188835_434" vType="DEFAULT_VEHTYPE" vaporized="">
        <emissions CO_abs="241.986234" CO2_abs="35962.491685" HC_abs="10.059136" PMx_abs="2.767355" NOx_abs="64.975888" fuel_abs="14.337689"/>
    </tripinfo>
    <tripinfo id="122617_122617_406" depart="27000.00" departLane="131651824_0" departPos="5.10" departSpeed="0.00" departDelay="0.00" arrival="27031.00" arrivalLane="130875842_0" arrivalPos="81.21" arrivalSpeed="12.63" duration="31.00" routeLength="76.11" waitSteps="0" rerouteNo="2" devices="tripinfo_122617_122617_406 hbefa_122617_122617_406" vType="DEFAULT_VEHTYPE" vaporized="">
        <emissions CO_abs="970.004359" CO2_abs="82627.463342" HC_abs="24.527664" PMx_abs="9.170811" NOx_abs="169.895951" fuel_abs="32.942304"/>
    </tripinfo>
    <tripinfo id="104726_104726_398" depart="27000.00" departLane="23471158#5_0" departPos="5.10" departSpeed="0.00" departDelay="0.00" arrival="27032.00" arrivalLane="32856811#2_0" arrivalPos="144.91" arrivalSpeed="13.38" duration="32.00" routeLength="139.81" waitSteps="0" rerouteNo="3" devices="tripinfo_104726_104726_398 hbefa_104726_104726_398" vType="DEFAULT_VEHTYPE" vaporized="">
        <emissions CO_abs="2071.050280" CO2_abs="132070.915317" HC_abs="43.027086" PMx_abs="16.135405" NOx_abs="288.532845" fuel_abs="52.654687"/>
    </tripinfo>
    <tripinfo id="187318_187318_433" depart="27013.00" departLane="-83823403#2_0" departPos="5.10" departSpeed="0.00" departDelay="0.00" arrival="27032.00" arrivalLane="-83823403#2_0" arrivalPos="184.87" arrivalSpeed="11.53" duration="19.00" routeLength="179.77" waitSteps="0" rerouteNo="0" devices="tripinfo_187318_187318_433 hbefa_187318_187318_433" vType="DEFAULT_VEHTYPE" vaporized="">
        <emissions CO_abs="808.117793" CO2_abs="57854.945135" HC_abs="18.652866" PMx_abs="7.098647" NOx_abs="123.251109" fuel_abs="23.065875"/>
    </tripinfo>
    <tripinfo id="212444_212444_443" depart="27003.00" departLane="166155712#0_0" departPos="5.10" departSpeed="0.00" departDelay="0.00" arrival="27033.00" arrivalLane="33469672_0" arrivalPos="142.78" arrivalSpeed="12.65" duration="30.00" routeLength="137.68" waitSteps="0" rerouteNo="1" devices="tripinfo_212444_212444_443 hbefa_212444_212444_443" vType="DEFAULT_VEHTYPE" vaporized="">
        <emissions CO_abs="951.855016" CO2_abs="76620.047646" HC_abs="23.339062" PMx_abs="8.888363" NOx_abs="159.480676" fuel_abs="30.547237"/>
    </tripinfo>
    <tripinfo id="103637_103637_397" depart="27000.00" departLane="145474196#1_0" departPos="5.10" departSpeed="0.00" departDelay="0.00" arrival="27034.00" arrivalLane="150039002#2_1" arrivalPos="249.40" arrivalSpeed="13.15" duration="34.00" routeLength="244.30" waitSteps="0" rerouteNo="2" devices="tripinfo_103637_103637_397 hbefa_103637_103637_397" vType="DEFAULT_VEHTYPE" vaporized="">
        <emissions CO_abs="912.195131" CO2_abs="79884.843354" HC_abs="23.692214" PMx_abs="8.456123" NOx_abs="162.526882" fuel_abs="31.848863"/>
    </tripinfo>
    <tripinfo id="208001_208001_441" depart="27001.00" departLane="-83823403#2_0" departPos="5.10" departSpeed="0.00" departDelay="0.00" arrival="27034.00" arrivalLane="23015529#0_0" arrivalPos="184.87" arrivalSpeed="13.80" duration="33.00" routeLength="179.77" waitSteps="0" rerouteNo="1" devices="tripinfo_208001_208001_441 hbefa_208001_208001_441" vType="DEFAULT_VEHTYPE" vaporized="">
        <emissions CO_abs="1057.429538" CO2_abs="78540.184165" HC_abs="24.645529" PMx_abs="9.329563" NOx_abs="166.187767" fuel_abs="31.312765"/>
    </tripinfo>
    <tripinfo id="103310_103310_397" depart="27000.00" departLane="83703645_0" departPos="5.10" departSpeed="0.00" departDelay="0.00" arrival="27035.00" arrivalLane="23493177#0_1" arrivalPos="166.52" arrivalSpeed="7.45" duration="35.00" routeLength="161.42" waitSteps="0" rerouteNo="2" devices="tripinfo_103310_103310_397 hbefa_103310_103310_397" vType="DEFAULT_VEHTYPE" vaporized="">
        <emissions CO_abs="506.121963" CO2_abs="50693.173598" HC_abs="15.086355" PMx_abs="4.972351" NOx_abs="99.171409" fuel_abs="20.210586"/>
    </tripinfo>
    <tripinfo id="217202_217202_446" depart="27007.00" departLane="-83823403#2_0" departPos="5.10" departSpeed="0.00" departDelay="0.00" arrival="27035.00" arrivalLane="23015533_0" arrivalPos="110.79" arrivalSpeed="13.48" duration="28.00" routeLength="105.69" waitSteps="0" rerouteNo="1" devices="tripinfo_217202_217202_446 hbefa_217202_217202_446" vType="DEFAULT_VEHTYPE" vaporized="">
        <emissions CO_abs="887.132421" CO2_abs="68491.151771" HC_abs="21.339955" PMx_abs="7.854972" NOx_abs="143.203642" fuel_abs="27.306369"/>
    </tripinfo>
    <tripinfo id="238887_238887_451" depart="27010.00" departLane="-83823403#2_0" departPos="5.10" departSpeed="0.00" departDelay="0.00" arrival="27038.00" arrivalLane="23015533_0" arrivalPos="110.79" arrivalSpeed="12.60" duration="28.00" routeLength="105.69" waitSteps="0" rerouteNo="1" devices="tripinfo_238887_238887_451 hbefa_238887_238887_451" vType="DEFAULT_VEHTYPE" vaporized="">
        <emissions CO_abs="880.568735" CO2_abs="71569.934552" HC_abs="21.882685" PMx_abs="8.051502" NOx_abs="148.079112" fuel_abs="28.533833"/>
    </tripinfo>
    <tripinfo id="218769_218769_446" depart="27003.00" departLane="-55940134_0" departPos="5.10" departSpeed="0.00" departDelay="3.00" arrival="27040.00" arrivalLane="-144935692#1_1" arrivalPos="103.61" arrivalSpeed="12.91" duration="37.00" routeLength="98.51" waitSteps="0" rerouteNo="3" devices="tripinfo_218769_218769_446 hbefa_218769_218769_446" vType="DEFAULT_VEHTYPE" vaporized="">
        <emissions CO_abs="635.283199" CO2_abs="68081.156933" HC_abs="18.452495" PMx_abs="6.619496" NOx_abs="134.150797" fuel_abs="27.142922"/>
    </tripinfo>
    <tripinfo id="154499_154499_420" depart="27000.00" departLane="28542995#0_0" departPos="5.10" departSpeed="0.00" departDelay="0.00" arrival="27040.00" arrivalLane="23493260#4_1" arrivalPos="126.60" arrivalSpeed="13.72" duration="40.00" routeLength="121.50" waitSteps="0" rerouteNo="4" devices="tripinfo_154499_154499_420 hbefa_154499_154499_420" vType="DEFAULT_VEHTYPE" vaporized="">
        <emissions CO_abs="975.094330" CO2_abs="93161.186264" HC_abs="26.935472" PMx_abs="9.290305" NOx_abs="185.835815" fuel_abs="37.141940"/>
    </tripinfo>
    <tripinfo id="171544_171544_426" depart="27000.00" departLane="187965762#1_0" departPos="5.10" departSpeed="0.00" departDelay="0.00" arrival="27040.00" arrivalLane="23800191#0_0" arrivalPos="143.94" arrivalSpeed="12.98" duration="40.00" routeLength="138.84" waitSteps="0" rerouteNo="3" devices="tripinfo_171544_171544_426 hbefa_171544_171544_426" vType="DEFAULT_VEHTYPE" vaporized="">
        <emissions CO_abs="602.040427" CO2_abs="64245.165826" HC_abs="18.344573" PMx_abs="6.081538" NOx_abs="124.862739" fuel_abs="25.613561"/>
    </tripinfo>
    <tripinfo id="138122_138122_412" depart="27009.00" departLane="131651824_0" departPos="5.10" departSpeed="0.00" departDelay="9.00" arrival="27041.00" arrivalLane="130875842_0" arrivalPos="81.21" arrivalSpeed="13.56" duration="32.00" routeLength="76.11" waitSteps="0" rerouteNo="2" devices="tripinfo_138122_138122_412 hbefa_138122_138122_412" vType="DEFAULT_VEHTYPE" vaporized="">
        <emissions CO_abs="1023.880287" CO2_abs="86682.344363" HC_abs="25.848134" PMx_abs="9.573409" NOx_abs="178.219847" fuel_abs="34.558923"/>
    </tripinfo>
    <tripinfo id="244420_244420_453" depart="27015.00" departLane="-165515969#3_0" departPos="5.10" departSpeed="0.00" departDelay="0.00" arrival="27041.00" arrivalLane="-165511531#0_0" arrivalPos="53.73" arrivalSpeed="13.28" duration="26.00" routeLength="345.81" waitSteps="0" rerouteNo="0" devices="tripinfo_244420_244420_453 hbefa_244420_244420_453" vType="DEFAULT_VEHTYPE" vaporized="">
        <emissions CO_abs="2205.793933" CO2_abs="133125.238837" HC_abs="44.688621" PMx_abs="17.664150" NOx_abs="296.754046" fuel_abs="53.075009"/>
    </tripinfo>
    <tripinfo id="184987_184987_431" depart="27000.00" departLane="-186463490#0_0" departPos="5.10" departSpeed="0.00" departDelay="0.00" arrival="27042.00" arrivalLane="-144935692#1_1" arrivalPos="103.61" arrivalSpeed="12.60" duration="42.00" routeLength="98.51" waitSteps="0" rerouteNo="4" devices="tripinfo_184987_184987_431 hbefa_184987_184987_431" vType="DEFAULT_VEHTYPE" vaporized="">
        <emissions CO_abs="550.004608" CO2_abs="76686.464070" HC_abs="19.363621" PMx_abs="6.366601" NOx_abs="144.531878" fuel_abs="30.573731"/>
    </tripinfo>
    <tripinfo id="211099_211099_442" depart="27013.00" departLane="166155712#0_0" departPos="5.10" departSpeed="0.00" departDelay="0.00" arrival="27043.00" arrivalLane="33469672_0" arrivalPos="142.78" arrivalSpeed="12.92" duration="30.00" routeLength="137.68" waitSteps="0" rerouteNo="1" devices="tripinfo_211099_211099_442 hbefa_211099_211099_442" vType="DEFAULT_VEHTYPE" vaporized="">
        <emissions CO_abs="923.589597" CO2_abs="74657.975528" HC_abs="22.680768" PMx_abs="8.444204" NOx_abs="154.929824" fuel_abs="29.764989"/>
    </tripinfo>
    <tripinfo id="197472_197472_436" depart="27006.00" departLane="23800191#2_0" departPos="5.10" departSpeed="0.00" departDelay="6.00" arrival="27043.00" arrivalLane="130875842_0" arrivalPos="81.21" arrivalSpeed="13.50" duration="37.00" routeLength="76.11" waitSteps="0" rerouteNo="3" devices="tripinfo_197472_197472_436 hbefa_197472_197472_436" vType="DEFAULT_VEHTYPE" vaporized="">
        <emissions CO_abs="978.438697" CO2_abs="89289.550793" HC_abs="26.242200" PMx_abs="9.225590" NOx_abs="179.894596" fuel_abs="35.598376"/>
    </tripinfo>
    <tripinfo id="212327_212327_442" depart="27014.00" departLane="198147972_0" departPos="5.10" departSpeed="0.00" departDelay="0.00" arrival="27043.00" arrivalLane="4353628#1_0" arrivalPos="68.95" arrivalSpeed="12.68" duration="29.00" routeLength="63.85" waitSteps="0" rerouteNo="3" devices="tripinfo_212327_212327_442 hbefa_212327_212327_442" vType="DEFAULT_VEHTYPE" vaporized="">
        <emissions CO_abs="650.867519" CO2_abs="60263.214999" HC_abs="17.309552" PMx_abs="6.216657" NOx_abs="121.632406" fuel_abs="24.026024"/>
    </tripinfo>
    <tripinfo id="224931_224931_449" depart="27026.00" departLane="-28523795_0" departPos="5.10" departSpeed="0.00" departDelay="0.00" arrival="27044.00" arrivalLane="-28523795_0" arrivalPos="192.02" arrivalSpeed="13.54" duration="18.00" routeLength="186.92" waitSteps="0" rerouteNo="0" devices="tripinfo_224931_224931_449 hbefa_224931_224931_449" vType="DEFAULT_VEHTYPE" vaporized="">
        <emissions CO_abs="489.358321" CO2_abs="45679.347801" HC_abs="13.375808" PMx_abs="4.499265" NOx_abs="91.230780" fuel_abs="18.211657"/>
    </tripinfo>
    <tripinfo id="245947_245947_454" depart="27016.00" departLane="-83823403#2_0" departPos="5.10" departSpeed="0.00" departDelay="0.00" arrival="27044.00" arrivalLane="23015533_0" arrivalPos="110.79" arrivalSpeed="13.40" duration="28.00" routeLength="105.69" waitSteps="0" rerouteNo="1" devices="tripinfo_245947_245947_454 hbefa_245947_245947_454" vType="DEFAULT_VEHTYPE" vaporized="">
        <emissions CO_abs="800.476855" CO2_abs="72576.431958" HC_abs="21.332221" PMx_abs="7.477728" NOx_abs="146.393934" fuel_abs="28.935112"/>
    </tripinfo>
    <tripinfo id="140107_140107_414" depart="27000.00" departLane="154755117_0" departPos="5.10" departSpeed="0.00" departDelay="0.00" arrival="27046.00" arrivalLane="23800191#0_0" arrivalPos="143.94" arrivalSpeed="13.46" duration="46.00" routeLength="138.84" waitSteps="18" rerouteNo="1" devices="tripinfo_140107_140107_414 hbefa_140107_140107_414" vType="DEFAULT_VEHTYPE" vaporized="">
        <emissions CO_abs="877.405690" CO2_abs="67541.046264" HC_abs="24.473379" PMx_abs="7.147589" NOx_abs="134.475141" fuel_abs="26.927571"/>
    </tripinfo>
    <tripinfo id="95606_95606_394" depart="27000.00" departLane="8225148_0" departPos="5.10" departSpeed="0.00" departDelay="0.00" arrival="27047.00" arrivalLane="145261451_0" arrivalPos="86.92" arrivalSpeed="12.71" duration="47.00" routeLength="81.82" waitSteps="0" rerouteNo="5" devices="tripinfo_95606_95606_394 hbefa_95606_95606_394" vType="DEFAULT_VEHTYPE" vaporized="">
        <emissions CO_abs="1292.346570" CO2_abs="119206.177243" HC_abs="34.255431" PMx_abs="12.712924" NOx_abs="241.528087" fuel_abs="47.525681"/>
    </tripinfo>
    <tripinfo id="244003_244003_453" depart="27029.00" departLane="-28523795_0" departPos="5.10" departSpeed="0.00" departDelay="0.00" arrival="27047.00" arrivalLane="-28523795_0" arrivalPos="192.02" arrivalSpeed="13.55" duration="18.00" routeLength="186.92" waitSteps="0" rerouteNo="0" devices="tripinfo_244003_244003_453 hbefa_244003_244003_453" vType="DEFAULT_VEHTYPE" vaporized="">
        <emissions CO_abs="545.794947" CO2_abs="47337.744280" HC_abs="14.144853" PMx_abs="5.136905" NOx_abs="96.544840" fuel_abs="18.872834"/>
    </tripinfo>
    <tripinfo id="227630_227630_450" depart="27017.00" departLane="166155712#0_0" departPos="5.10" departSpeed="0.00" departDelay="0.00" arrival="27047.00" arrivalLane="33469672_0" arrivalPos="142.78" arrivalSpeed="13.83" duration="30.00" routeLength="137.68" waitSteps="0" rerouteNo="1" devices="tripinfo_227630_227630_450 hbefa_227630_227630_450" vType="DEFAULT_VEHTYPE" vaporized="">
        <emissions CO_abs="1005.668391" CO2_abs="75832.950127" HC_abs="23.696756" PMx_abs="8.962369" NOx_abs="159.891452" fuel_abs="30.233432"/>
    </tripinfo>
    <tripinfo id="221885_221885_448" depart="27017.00" departLane="-175607927#0_0" departPos="5.10" departSpeed="0.00" departDelay="0.00" arrival="27047.00" arrivalLane="-29214406_0" arrivalPos="179.38" arrivalSpeed="13.69" duration="30.00" routeLength="174.28" waitSteps="0" rerouteNo="1" devices="tripinfo_221885_221885_448 hbefa_221885_221885_448" vType="DEFAULT_VEHTYPE" vaporized="">
        <emissions CO_abs="905.227189" CO2_abs="80240.337273" HC_abs="23.457285" PMx_abs="8.646991" NOx_abs="163.497207" fuel_abs="31.990594"/>
    </tripinfo>
    <tripinfo id="192246_192246_435" depart="27018.00" departLane="2511537#2_0" departPos="5.10" departSpeed="0.00" departDelay="18.00" arrival="27048.00" arrivalLane="2511537#2_0" arrivalPos="191.15" arrivalSpeed="6.36" duration="30.00" routeLength="186.05" waitSteps="0" rerouteNo="0" devices="tripinfo_192246_192246_435 hbefa_192246_192246_435" vType="DEFAULT_VEHTYPE" vaporized="">
        <emissions CO_abs="371.574825" CO2_abs="39253.286037" HC_abs="12.006656" PMx_abs="3.756324" NOx_abs="75.072076" fuel_abs="15.649677"/>
    </tripinfo>
    <tripinfo id="65351_65351_379" depart="27013.00" departLane="23471158#0_0" departPos="5.10" departSpeed="0.00" departDelay="13.00" arrival="27049.00" arrivalLane="23471158#10_0" arrivalPos="144.68" arrivalSpeed="26.57" duration="36.00" routeLength="139.58" waitSteps="0" rerouteNo="3" devices="tripinfo_65351_65351_379 hbefa_65351_65351_379" vType="DEFAULT_VEHTYPE" vaporized="">
        <emissions CO_abs="4250.115156" CO2_abs="242610.875242" HC_abs="81.925512" PMx_abs="31.997095" NOx_abs="547.748187" fuel_abs="96.725321"/>
    </tripinfo>
    <tripinfo id="192851_192851_435" depart="27021.00" departLane="2511537#2_0" departPos="5.10" departSpeed="0.00" departDelay="21.00" arrival="27050.00" arrivalLane="2511537#2_0" arrivalPos="191.15" arrivalSpeed="7.38" duration="29.00" routeLength="186.05" waitSteps="0" rerouteNo="0" devices="tripinfo_192851_192851_435 hbefa_192851_192851_435" vType="DEFAULT_VEHTYPE" vaporized="">