<?xml version="1.0"?>

<!-- generated on ven. 13 déc. 2013 11:49:05 CET by SUMO gui Version 0.16.0
<?xml version="1.0" encoding="UTF-8"?>

<configuration xmlns:xsi="http://www.w3.org/2001/XMLSchema-instance" xsi:noNamespaceSchemaLocation="http://sumo.sf.net/xsd/sumo-gui.exeConfiguration.xsd">

    <input>
        <net-file value="data/map.net.xml"/>
        <route-files value="data/map.rou.xml"/>
    </input>

    <output>
        <tripinfo-output value="data/maptripinfoLocal.out.xml"/>
    </output>

    <time>
        <begin value="21600"/>
        <end value="21800"/>
    </time>

    <processing>
        <route-steps value="200"/>
        <no-internal-links value="true"/>
        <scale value="0.3"/>
        <time-to-teleport value="160"/>
        <sloppy-insert value="true"/>
        <lanechange.allow-swap value="true"/>
    </processing>

    <report>
        <verbose value="true"/>
        <no-warnings value="false"/>
        <no-step-log value="true"/>
    </report>

    <traci_server>
        <remote-port value="8813"/>
    </traci_server>

</configuration>
-->

<tripinfos>
    <tripinfo id="41696_41696_361" depart="21607.00" departLane="-154755095#0_0" departPos="4.60" departSpeed="0.00" departDelay="0.00" arrival="21659.00" arrivalLane="145575263_1" arrivalPos="202.22" arrivalSpeed="13.76" duration="52.00" routeLength="501.93" waitSteps="0" rerouteNo="0" devices="tripinfo_41696_41696_361" vType="passenger_P_14_1" vaporized=""/>
    <tripinfo id="47106_47106_364" depart="21617.00" departLane="-150031202#7_0" departPos="4.60" departSpeed="0.00" departDelay="0.00" arrival="21668.00" arrivalLane="-150031202#1_0" arrivalPos="150.93" arrivalSpeed="13.85" duration="51.00" routeLength="641.88" waitSteps="0" rerouteNo="0" devices="tripinfo_47106_47106_364" vType="passenger_P_14_1" vaporized=""/>
    <tripinfo id="42744_42744_361" depart="21637.00" departLane="57821353#0_0" departPos="4.60" departSpeed="0.00" departDelay="0.00" arrival="21675.00" arrivalLane="69565670#1_0" arrivalPos="5.20" arrivalSpeed="10.96" duration="38.00" routeLength="301.51" waitSteps="0" rerouteNo="0" devices="tripinfo_42744_42744_361" vType="passenger_P_14_1" vaporized=""/>
    <tripinfo id="44721_44721_362" depart="21609.00" departLane="-20789349#9_0" departPos="4.60" departSpeed="0.00" departDelay="0.00" arrival="21696.00" arrivalLane="34635529#6_0" arrivalPos="132.49" arrivalSpeed="7.79" duration="87.00" routeLength="583.19" waitSteps="0" rerouteNo="0" devices="tripinfo_44721_44721_362" vType="passenger_P_14_1" vaporized=""/>
    <tripinfo id="35556_35556_354" depart="21618.00" departLane="-93320054_0" departPos="4.60" departSpeed="0.00" departDelay="0.00" arrival="21699.00" arrivalLane="155430651#0_0" arrivalPos="180.41" arrivalSpeed="13.18" duration="81.00" routeLength="932.39" waitSteps="0" rerouteNo="0" devices="tripinfo_35556_35556_354" vType="passenger_P_14_1" vaporized=""/>
    <tripinfo id="38142_38142_359" depart="21605.00" departLane="23151660#1_0" departPos="4.60" departSpeed="0.00" departDelay="0.00" arrival="21717.00" arrivalLane="-174753920_0" arrivalPos="86.38" arrivalSpeed="13.56" duration="112.00" routeLength="1573.39" waitSteps="0" rerouteNo="0" devices="tripinfo_38142_38142_359" vType="passenger_P_14_1" vaporized=""/>
    <tripinfo id="41100_41100_361" depart="21647.00" departLane="157393595#1_0" departPos="4.60" departSpeed="0.00" departDelay="0.00" arrival="21731.00" arrivalLane="150109684#1_0" arrivalPos="136.63" arrivalSpeed="21.98" duration="84.00" routeLength="1601.21" waitSteps="0" rerouteNo="0" devices="tripinfo_41100_41100_361" vType="passenger_P_14_1" vaporized=""/>
    <tripinfo id="47010_47010_364" depart="21639.00" departLane="-28675494#0_0" departPos="4.60" departSpeed="0.00" departDelay="2.00" arrival="21749.00" arrivalLane="-32609995_0" arrivalPos="43.09" arrivalSpeed="7.80" duration="110.00" routeLength="1715.89" waitSteps="0" rerouteNo="0" devices="tripinfo_47010_47010_364" vType="passenger_P_14_1" vaporized=""/>
    <tripinfo id="48199_48199_365" depart="21626.00" departLane="132622414#2_0" departPos="4.60" departSpeed="0.00" departDelay="0.00" arrival="21759.00" arrivalLane="203110175#1_0" arrivalPos="260.50" arrivalSpeed="13.87" duration="133.00" routeLength="1263.02" waitSteps="0" rerouteNo="0" devices="tripinfo_48199_48199_365" vType="passenger_P_14_1" vaporized=""/>
    <tripinfo id="44523_44523_362" depart="21660.00" departLane="-37144831_0" departPos="4.60" departSpeed="0.00" departDelay="0.00" arrival="21768.00" arrivalLane="5015538#0_0" arrivalPos="150.19" arrivalSpeed="12.99" duration="108.00" routeLength="754.96" waitSteps="19" rerouteNo="0" devices="tripinfo_44523_44523_362" vType="passenger_P_14_1" vaporized=""/>
    <tripinfo id="47510_47510_365" depart="21606.00" departLane="-23691831#3_0" departPos="4.60" departSpeed="0.00" departDelay="0.00" arrival="21773.00" arrivalLane="-6186579#1_0" arrivalPos="131.63" arrivalSpeed="12.72" duration="167.00" routeLength="1794.26" waitSteps="21" rerouteNo="0" devices="tripinfo_47510_47510_365" vType="passenger_P_14_1" vaporized=""/>
    <tripinfo id="39328_39328_360" depart="21600.00" departLane="23839407#0_0" departPos="4.60" departSpeed="0.00" departDelay="0.00" arrival="21777.00" arrivalLane="146235961#0_0" arrivalPos="131.72" arrivalSpeed="20.98" duration="177.00" routeLength="2234.51" waitSteps="47" rerouteNo="0" devices="tripinfo_39328_39328_360" vType="passenger_P_14_1" vaporized=""/>
    <tripinfo id="43622_43622_362" depart="21625.00" departLane="-22690859#1_0" departPos="4.60" departSpeed="0.00" departDelay="0.00" arrival="21786.00" arrivalLane="-156637172#2_0" arrivalPos="660.57" arrivalSpeed="21.66" duration="161.00" routeLength="1919.24" waitSteps="35" rerouteNo="0" devices="tripinfo_43622_43622_362" vType="passenger_P_14_1" vaporized=""/>
    <tripinfo id="35847_35847_355" depart="21698.00" departLane="-20681057#3_0" departPos="4.60" departSpeed="0.00" departDelay="0.00" arrival="21789.00" arrivalLane="21616027#2_0" arrivalPos="309.91" arrivalSpeed="13.77" duration="91.00" routeLength="1035.77" waitSteps="0" rerouteNo="0" devices="tripinfo_35847_35847_355" vType="passenger_P_14_1" vaporized=""/>
    <tripinfo id="47697_47697_365" depart="21630.00" departLane="186623965#8_0" departPos="4.60" departSpeed="0.00" departDelay="0.00" arrival="21792.00" arrivalLane="49607568#1_0" arrivalPos="201.16" arrivalSpeed="7.46" duration="162.00" routeLength="1750.18" waitSteps="0" rerouteNo="0" devices="tripinfo_47697_47697_365" vType="passenger_P_14_1" vaporized=""/>
    <tripinfo id="35709_35709_354" depart="21643.00" departLane="32021840#13_0" departPos="4.60" departSpeed="0.00" departDelay="0.00" arrival="21802.00" arrivalLane="5021132#2_0" arrivalPos="146.34" arrivalSpeed="13.39" duration="159.00" routeLength="2093.32" waitSteps="0" rerouteNo="0" devices="tripinfo_35709_35709_354" vType="passenger_P_14_1" vaporized=""/>
    <tripinfo id="38143_38143_359" depart="21610.00" departLane="-157383257#1_0" departPos="4.60" departSpeed="0.00" departDelay="0.00" arrival="21803.00" arrivalLane="-20306933#1_0" arrivalPos="632.29" arrivalSpeed="20.98" duration="193.00" routeLength="2180.63" waitSteps="0" rerouteNo="0" devices="tripinfo_38143_38143_359" vType="passenger_P_14_1" vaporized=""/>
    <tripinfo id="46558_46558_363" depart="21711.00" departLane="5216290#0_0" departPos="4.60" departSpeed="0.00" departDelay="0.00" arrival="21805.00" arrivalLane="32857154#13_0" arrivalPos="276.95" arrivalSpeed="13.33" duration="94.00" routeLength="1037.49" waitSteps="0" rerouteNo="0" devices="tripinfo_46558_46558_363" vType="passenger_P_14_1" vaporized=""/>
    <tripinfo id="43969_43969_362" depart="21691.00" departLane="28675510#7_0" departPos="4.60" departSpeed="0.00" departDelay="0.00" arrival="21809.00" arrivalLane="9618920#1_1" arrivalPos="109.43" arrivalSpeed="26.52" duration="118.00" routeLength="1778.31" waitSteps="0" rerouteNo="0" devices="tripinfo_43969_43969_362" vType="passenger_P_14_1" vaporized=""/>
    <tripinfo id="47481_47481_364" depart="21633.00" departLane="22959551_0" departPos="4.60" departSpeed="0.00" departDelay="0.00" arrival="21813.00" arrivalLane="-59181485#0_0" arrivalPos="70.55" arrivalSpeed="13.58" duration="180.00" routeLength="2266.80" waitSteps="0" rerouteNo="0" devices="tripinfo_47481_47481_364" vType="passenger_P_14_1" vaporized=""/>
    <tripinfo id="45569_45569_363" depart="21654.00" departLane="31629871#3_0" departPos="4.60" departSpeed="0.00" departDelay="0.00" arrival="21816.00" arrivalLane="24518561#0_0" arrivalPos="283.29" arrivalSpeed="12.83" duration="162.00" routeLength="1290.69" waitSteps="47" rerouteNo="0" devices="tripinfo_45569_45569_363" vType="passenger_P_14_1" vaporized=""/>
    <tripinfo id="50360_50360_368" depart="21688.00" departLane="-27815920_0" departPos="4.60" departSpeed="0.00" departDelay="0.00" arrival="21816.00" arrivalLane="-154513853#0_0" arrivalPos="22.40" arrivalSpeed="7.71" duration="128.00" routeLength="1321.58" waitSteps="0" rerouteNo="0" devices="tripinfo_50360_50360_368" vType="passenger_P_14_1" vaporized=""/>
    <tripinfo id="46133_46133_363" depart="21611.00" departLane="206782858#0_0" departPos="4.60" departSpeed="0.00" departDelay="0.00" arrival="21820.00" arrivalLane="4400448_0" arrivalPos="193.07" arrivalSpeed="7.68" duration="209.00" routeLength="2364.20" waitSteps="34" rerouteNo="0" devices="tripinfo_46133_46133_363" vType="passenger_P_14_1" vaporized=""/>
    <tripinfo id="47341_47341_364" depart="21645.00" departLane="148180147#2_0" departPos="4.60" departSpeed="0.00" departDelay="0.00" arrival="21823.00" arrivalLane="23283470#1_0" arrivalPos="80.76" arrivalSpeed="13.34" duration="178.00" routeLength="1883.19" waitSteps="39" rerouteNo="0" devices="tripinfo_47341_47341_364" vType="passenger_P_14_1" vaporized=""/>
    <tripinfo id="47293_47293_364" depart="21727.00" departLane="-24794083#1_0" departPos="4.60" departSpeed="0.00" departDelay="0.00" arrival="21827.00" arrivalLane="24453699_0" arrivalPos="320.96" arrivalSpeed="13.38" duration="100.00" routeLength="1539.03" waitSteps="0" rerouteNo="0" devices="tripinfo_47293_47293_364" vType="passenger_P_14_1" vaporized=""/>
    <tripinfo id="48466_48466_366" depart="21635.00" departLane="146235959#0_0" departPos="4.60" departSpeed="0.00" departDelay="0.00" arrival="21828.00" arrivalLane="-27503774#7_0" arrivalPos="74.19" arrivalSpeed="13.59" duration="193.00" routeLength="1693.87" waitSteps="35" rerouteNo="0" devices="tripinfo_48466_48466_366" vType="passenger_P_14_1" vaporized=""/>
    <tripinfo id="35364_35364_354" depart="21606.00" departLane="4400211#0_0" departPos="4.60" departSpeed="0.00" departDelay="0.00" arrival="21833.00" arrivalLane="-88235139#1_0" arrivalPos="70.91" arrivalSpeed="7.50" duration="227.00" routeLength="2513.22" waitSteps="0" rerouteNo="0" devices="tripinfo_35364_35364_354" vType="passenger_P_14_1" vaporized=""/>
    <tripinfo id="47681_47681_365" depart="21620.00" departLane="-206782857#1_0" departPos="4.60" departSpeed="0.00" departDelay="0.00" arrival="21834.00" arrivalLane="-185322632#4_0" arrivalPos="403.20" arrivalSpeed="13.59" duration="214.00" routeLength="2440.33" waitSteps="41" rerouteNo="0" devices="tripinfo_47681_47681_365" vType="passenger_P_14_1" vaporized=""/>
    <tripinfo id="36183_36183_355" depart="21628.00" departLane="132539909_0" departPos="4.60" departSpeed="0.00" departDelay="0.00" arrival="21837.00" arrivalLane="159556201#2_0" arrivalPos="740.15" arrivalSpeed="16.18" duration="209.00" routeLength="3450.84" waitSteps="0" rerouteNo="0" devices="tripinfo_36183_36183_355" vType="passenger_P_14_1" vaporized=""/>
    <tripinfo id="50290_50290_368" depart="21742.00" departLane="156992238#0_0" departPos="4.60" departSpeed="0.00" departDelay="0.00" arrival="21837.00" arrivalLane="23543192#0_0" arrivalPos="83.09" arrivalSpeed="13.66" duration="95.00" routeLength="1055.94" waitSteps="0" rerouteNo="0" devices="tripinfo_50290_50290_368" vType="passenger_P_14_1" vaporized=""/>
    <tripinfo id="42491_42491_361" depart="21642.00" departLane="5367035#0_0" departPos="4.60" departSpeed="0.00" departDelay="0.00" arrival="21842.00" arrivalLane="4672012#3_0" arrivalPos="229.70" arrivalSpeed="21.05" duration="200.00" routeLength="3831.95" waitSteps="0" rerouteNo="0" devices="tripinfo_42491_42491_361" vType="passenger_P_14_1" vaporized=""/>
    <tripinfo id="40504_40504_360" depart="21607.00" departLane="2832027#1_0" departPos="4.60" departSpeed="0.00" departDelay="0.00" arrival="21843.00" arrivalLane="23015813#0_0" arrivalPos="133.22" arrivalSpeed="12.74" duration="236.00" routeLength="1889.12" waitSteps="37" rerouteNo="0" devices="tripinfo_40504_40504_360" vType="passenger_P_14_1" vaporized=""/>
    <tripinfo id="45129_45129_362" depart="21754.00" departLane="-146505404#1_0" departPos="4.60" departSpeed="0.00" departDelay="0.00" arrival="21846.00" arrivalLane="85264014#2_0" arrivalPos="86.78" arrivalSpeed="20.47" duration="92.00" routeLength="851.03" waitSteps="0" rerouteNo="0" devices="tripinfo_45129_45129_362" vType="passenger_P_14_1" vaporized=""/>
    <tripinfo id="46381_46381_363" depart="21609.00" departLane="22598785_0" departPos="4.60" departSpeed="0.00" departDelay="0.00" arrival="21851.00" arrivalLane="28372882_0" arrivalPos="144.68" arrivalSpeed="7.55" duration="242.00" routeLength="2822.56" waitSteps="0" rerouteNo="0" devices="tripinfo_46381_46381_363" vType="passenger_P_14_1" vaporized=""/>
    <tripinfo id="43188_43188_362" depart="21636.00" departLane="23687023#0_0" departPos="4.60" departSpeed="0.00" departDelay="0.00" arrival="21851.00" arrivalLane="-23543136_0" arrivalPos="111.89" arrivalSpeed="13.13" duration="215.00" routeLength="1783.26" waitSteps="71" rerouteNo="0" devices="tripinfo_43188_43188_362" vType="passenger_P_14_1" vaporized=""/>
    <tripinfo id="41613_41613_361" depart="21670.00" departLane="99190466#4_0" departPos="4.60" departSpeed="0.00" departDelay="0.00" arrival="21854.00" arrivalLane="29145293#0_0" arrivalPos="177.18" arrivalSpeed="13.04" duration="184.00" routeLength="1380.98" waitSteps="74" rerouteNo="0" devices="tripinfo_41613_41613_361" vType="passenger_P_14_1" vaporized=""/>
    <tripinfo id="38626_38626_359" depart="21663.00" departLane="-32636009#3_0" departPos="4.60" departSpeed="0.00" departDelay="0.00" arrival="21855.00" arrivalLane="25866964#1_0" arrivalPos="256.88" arrivalSpeed="7.54" duration="192.00" routeLength="2229.37" waitSteps="0" rerouteNo="0" devices="tripinfo_38626_38626_359" vType="passenger_P_14_1" vaporized=""/>
    <tripinfo id="38485_38485_359" depart="21647.00" departLane="-130165216_0" departPos="4.60" departSpeed="0.00" departDelay="0.00" arrival="21857.00" arrivalLane="-4907750#2_0" arrivalPos="84.98" arrivalSpeed="12.91" duration="210.00" routeLength="1821.72" waitSteps="53" rerouteNo="0" devices="tripinfo_38485_38485_359" vType="passenger_P_14_1" vaporized=""/>
    <tripinfo id="44384_44384_362" depart="21608.00" departLane="160253854#0_0" departPos="4.60" departSpeed="0.00" departDelay="0.00" arrival="21859.00" arrivalLane="-132540403_0" arrivalPos="59.59" arrivalSpeed="12.61" duration="251.00" routeLength="1941.24" waitSteps="41" rerouteNo="0" devices="tripinfo_44384_44384_362" vType="passenger_P_14_1" vaporized=""/>
    <tripinfo id="37676_37676_358" depart="21684.00" departLane="-68363492#3_0" departPos="4.60" departSpeed="0.00" departDelay="0.00" arrival="21860.00" arrivalLane="-207881868#6_0" arrivalPos="557.82" arrivalSpeed="13.59" duration="176.00" routeLength="1671.50" waitSteps="34" rerouteNo="0" devices="tripinfo_37676_37676_358" vType="passenger_P_14_1" vaporized=""/>
    <tripinfo id="48299_48299_365" depart="21654.00" departLane="-132530753#6_0" departPos="4.60" departSpeed="0.00" departDelay="0.00" arrival="21861.00" arrivalLane="132530914#2_0" arrivalPos="136.81" arrivalSpeed="12.82" duration="207.00" routeLength="2085.57" waitSteps="0" rerouteNo="0" devices="tripinfo_48299_48299_365" vType="passenger_P_14_1" vaporized=""/>
    <tripinfo id="48237_48237_365" depart="21736.00" departLane="131383238#1_0" departPos="4.60" departSpeed="0.00" departDelay="0.00" arrival="21861.00" arrivalLane="-5170512#8_0" arrivalPos="30.00" arrivalSpeed="7.08" duration="125.00" routeLength="1260.85" waitSteps="0" rerouteNo="0" devices="tripinfo_48237_48237_365" vType="passenger_P_14_1" vaporized=""/>
    <tripinfo id="51800_51800_370" depart="21777.00" departLane="24987831#0_0" departPos="4.60" departSpeed="0.00" departDelay="0.00" arrival="21864.00" arrivalLane="26686077#4_0" arrivalPos="160.35" arrivalSpeed="7.46" duration="87.00" routeLength="918.67" waitSteps="0" rerouteNo="0" devices="tripinfo_51800_51800_370" vType="passenger_P_14_1" vaporized=""/>
    <tripinfo id="38431_38431_359" depart="21643.00" departLane="150031260_0" departPos="4.60" departSpeed="0.00" departDelay="0.00" arrival="21870.00" arrivalLane="154755073#5_0" arrivalPos="319.22" arrivalSpeed="8.23" duration="227.00" routeLength="1901.82" waitSteps="24" rerouteNo="0" devices="tripinfo_38431_38431_359" vType="passenger_P_14_1" vaporized=""/>
    <tripinfo id="46332_46332_363" depart="21613.00" departLane="27431133#0_0" departPos="4.60" departSpeed="0.00" departDelay="0.00" arrival="21875.00" arrivalLane="154755073#5_0" arrivalPos="315.17" arrivalSpeed="7.89" duration="262.00" routeLength="3043.51" waitSteps="5" rerouteNo="0" devices="tripinfo_46332_46332_363" vType="passenger_P_14_1" vaporized=""/>
    <tripinfo id="37953_37953_358" depart="21625.00" departLane="-28675558#2_0" departPos="4.60" departSpeed="0.00" departDelay="0.00" arrival="21877.00" arrivalLane="49008923#0_0" arrivalPos="93.02" arrivalSpeed="13.64" duration="252.00" routeLength="2609.12" waitSteps="53" rerouteNo="0" devices="tripinfo_37953_37953_358" vType="passenger_P_14_1" vaporized=""/>
    <tripinfo id="47992_47992_365" depart="21640.00" departLane="31973370#0_0" departPos="4.60" departSpeed="0.00" departDelay="0.00" arrival="21880.00" arrivalLane="64487932#2_1" arrivalPos="263.97" arrivalSpeed="13.68" duration="240.00" routeLength="2740.99" waitSteps="0" rerouteNo="0" devices="tripinfo_47992_47992_365" vType="passenger_P_14_1" vaporized=""/>
    <tripinfo id="48589_48589_366" depart="21639.00" departLane="-160513538#7_0" departPos="4.60" departSpeed="0.00" departDelay="0.00" arrival="21880.00" arrivalLane="4962341#0_0" arrivalPos="377.20" arrivalSpeed="7.41" duration="241.00" routeLength="2601.52" waitSteps="4" rerouteNo="0" devices="tripinfo_48589_48589_366" vType="passenger_P_14_1" vaporized=""/>
    <tripinfo id="46217_46217_363" depart="21678.00" departLane="-158196011#3_0" departPos="4.60" departSpeed="0.00" departDelay="0.00" arrival="21881.00" arrivalLane="7658429#0_0" arrivalPos="492.00" arrivalSpeed="12.71" duration="203.00" routeLength="2345.15" waitSteps="26" rerouteNo="0" devices="tripinfo_46217_46217_363" vType="passenger_P_14_1" vaporized=""/>
    <tripinfo id="47912_47912_365" depart="21644.00" departLane="-24545277#9_0" departPos="4.60" departSpeed="0.00" departDelay="0.00" arrival="21881.00" arrivalLane="24688825#6_0" arrivalPos="240.72" arrivalSpeed="7.79" duration="237.00" routeLength="2607.71" waitSteps="0" rerouteNo="0" devices="tripinfo_47912_47912_365" vType="passenger_P_14_1" vaporized=""/>
    <tripinfo id="40395_40395_360" depart="21659.00" departLane="4146760#0_0" departPos="4.60" departSpeed="0.00" departDelay="0.00" arrival="21883.00" arrivalLane="-23211442_0" arrivalPos="73.17" arrivalSpeed="13.38" duration="224.00" routeLength="2578.09" waitSteps="0" rerouteNo="0" devices="tripinfo_40395_40395_360" vType="passenger_P_14_1" vaporized=""/>
    <tripinfo id="41756_41756_361" depart="21691.00" departLane="-22822132#3_0" departPos="4.60" departSpeed="0.00" departDelay="0.00" arrival="21884.00" arrivalLane="22598778#2_0" arrivalPos="127.98" arrivalSpeed="13.32" duration="193.00" routeLength="1732.38" waitSteps="50" rerouteNo="0" devices="tripinfo_41756_41756_361" vType="passenger_P_14_1" vaporized=""/>
    <tripinfo id="39595_39595_360" depart="21719.00" departLane="-29122010_0" departPos="4.60" departSpeed="0.00" departDelay="0.00" arrival="21885.00" arrivalLane="175935722#1_1" arrivalPos="219.19" arrivalSpeed="27.16" duration="166.00" routeLength="2953.29" waitSteps="0" rerouteNo="0" devices="tripinfo_39595_39595_360" vType="passenger_P_14_1" vaporized=""/>
    <tripinfo id="41590_41590_361" depart="21790.00" departLane="-32064261_0" departPos="4.60" departSpeed="0.00" departDelay="0.00" arrival="21885.00" arrivalLane="29217219#1_0" arrivalPos="138.60" arrivalSpeed="7.26" duration="95.00" routeLength="535.90" waitSteps="27" rerouteNo="0" devices="tripinfo_41590_41590_361" vType="passenger_P_14_1" vaporized=""/>
    <tripinfo id="35111_35111_353" depart="21609.00" departLane="-34635529#6_0" departPos="4.60" departSpeed="0.00" departDelay="0.00" arrival="21887.00" arrivalLane="-155723657#2_0" arrivalPos="298.07" arrivalSpeed="7.53" duration="278.00" routeLength="2167.30" waitSteps="27" rerouteNo="0" devices="tripinfo_35111_35111_353" vType="passenger_P_14_1" vaporized=""/>
    <tripinfo id="47493_47493_364" depart="21608.00" departLane="132540394#7_0" departPos="4.60" departSpeed="0.00" departDelay="0.00" arrival="21889.00" arrivalLane="-132540166#1_0" arrivalPos="142.65" arrivalSpeed="12.87" duration="281.00" routeLength="3642.85" waitSteps="0" rerouteNo="0" devices="tripinfo_47493_47493_364" vType="passenger_P_14_1" vaporized=""/>
    <tripinfo id="46159_46159_363" depart="21714.00" departLane="-28764034#3_0" departPos="4.60" departSpeed="0.00" departDelay="0.00" arrival="21889.00" arrivalLane="-132409801#4_0" arrivalPos="99.44" arrivalSpeed="12.66" duration="175.00" routeLength="1280.40" waitSteps="40" rerouteNo="0" devices="tripinfo_46159_46159_363" vType="passenger_P_14_1" vaporized=""/>
    <tripinfo id="49396_49396_367" depart="21651.00" departLane="24434703#0_0" departPos="4.60" departSpeed="0.00" departDelay="0.00" arrival="21892.00" arrivalLane="23351464#0_0" arrivalPos="121.53" arrivalSpeed="8.26" duration="241.00" routeLength="3663.75" waitSteps="0" rerouteNo="0" devices="tripinfo_49396_49396_367" vType="passenger_P_14_1" vaporized=""/>
    <tripinfo id="43786_43786_362" depart="21648.00" departLane="22887906#4_0" departPos="4.60" departSpeed="0.00" departDelay="0.00" arrival="21893.00" arrivalLane="23016541#0_0" arrivalPos="219.60" arrivalSpeed="13.04" duration="245.00" routeLength="2485.81" waitSteps="37" rerouteNo="0" devices="tripinfo_43786_43786_362" vType="passenger_P_14_1" vaporized=""/>
    <tripinfo id="45108_45108_362" depart="21629.00" departLane="155592907#0_0" departPos="4.60" departSpeed="0.00" departDelay="0.00" arrival="21894.00" arrivalLane="9533192#0_1" arrivalPos="114.09" arrivalSpeed="13.64" duration="265.00" routeLength="3318.67" waitSteps="0" rerouteNo="0" devices="tripinfo_45108_45108_362" vType="passenger_P_14_1" vaporized=""/>
    <tripinfo id="43042_43042_362" depart="21665.00" departLane="24648342#0_0" departPos="4.60" departSpeed="0.00" departDelay="0.00" arrival="21896.00" arrivalLane="23693785#0_0" arrivalPos="245.96" arrivalSpeed="13.14" duration="231.00" routeLength="2908.78" waitSteps="0" rerouteNo="0" devices="tripinfo_43042_43042_362" vType="passenger_P_14_1" vaporized=""/>
    <tripinfo id="38221_38221_359" depart="21618.00" departLane="159891274#2_0" departPos="4.60" departSpeed="0.00" departDelay="0.00" arrival="21897.00" arrivalLane="24689094#0_0" arrivalPos="300.93" arrivalSpeed="13.83" duration="279.00" routeLength="4259.72" waitSteps="0" rerouteNo="0" devices="tripinfo_38221_38221_359" vType="passenger_P_14_1" vaporized=""/>
    <tripinfo id="48989_48989_366" depart="21600.00" departLane="49292083#0_0" departPos="4.60" departSpeed="0.00" departDelay="0.00" arrival="21897.00" arrivalLane="66389905#1_0" arrivalPos="124.39" arrivalSpeed="21.35" duration="297.00" routeLength="3128.06" waitSteps="64" rerouteNo="0" devices="tripinfo_48989_48989_366" vType="passenger_P_14_1" vaporized=""/>
    <tripinfo id="48429_48429_366" depart="21622.00" departLane="194017225#1_0" departPos="4.60" departSpeed="0.00" departDelay="0.00" arrival="21899.00" arrivalLane="52282311#3_0" arrivalPos="337.00" arrivalSpeed="8.25" duration="277.00" routeLength="3274.44" waitSteps="3" rerouteNo="0" devices="tripinfo_48429_48429_366" vType="passenger_P_14_1" vaporized=""/>
    <tripinfo id="42408_42408_361" depart="21805.00" departLane="-28930544#4_0" departPos="4.60" departSpeed="0.00" departDelay="0.00" arrival="21900.00" arrivalLane="-22917767#1_1" arrivalPos="262.21" arrivalSpeed="13.33" duration="95.00" routeLength="1286.68" waitSteps="0" rerouteNo="0" devices="tripinfo_42408_42408_361" vType="passenger_P_14_1" vaporized=""/>
    <tripinfo id="43535_43535_362" depart="21623.00" departLane="-22891817#1_0" departPos="4.60" departSpeed="0.00" departDelay="0.00" arrival="21900.00" arrivalLane="22917578_0" arrivalPos="115.00" arrivalSpeed="13.72" duration="277.00" routeLength="2617.56" waitSteps="42" rerouteNo="0" devices="tripinfo_43535_43535_362" vType="passenger_P_14_1" vaporized=""/>
    <tripinfo id="44930_44930_362" depart="21600.00" departLane="-157393121#3_0" departPos="4.60" departSpeed="0.00" departDelay="0.00" arrival="21903.00" arrivalLane="64487932#2_0" arrivalPos="271.54" arrivalSpeed="13.51" duration="303.00" routeLength="3384.52" waitSteps="0" rerouteNo="0" devices="tripinfo_44930_44930_362" vType="passenger_P_14_1" vaporized=""/>
    <tripinfo id="48572_48572_366" depart="21760.00" departLane="-23724094_0" departPos="4.60" departSpeed="0.00" departDelay="0.00" arrival="21906.00" arrivalLane="9873122_0" arrivalPos="519.24" arrivalSpeed="21.89" duration="146.00" routeLength="2706.69" waitSteps="0" rerouteNo="0" devices="tripinfo_48572_48572_366" vType="passenger_P_14_1" vaporized=""/>
    <tripinfo id="44500_44500_362" depart="21634.00" departLane="29217219#1_0" departPos="4.60" departSpeed="0.00" departDelay="0.00" arrival="21909.00" arrivalLane="155289634#0_0" arrivalPos="371.95" arrivalSpeed="22.00" duration="275.00" routeLength="3274.91" waitSteps="39" rerouteNo="0" devices="tripinfo_44500_44500_362" vType="passenger_P_14_1" vaporized=""/>
    <tripinfo id="45921_45921_363" depart="21652.00" departLane="132405268#0_0" departPos="4.60" departSpeed="0.00" departDelay="0.00" arrival="21909.00" arrivalLane="132530867#0_0" arrivalPos="126.07" arrivalSpeed="7.80" duration="257.00" routeLength="2593.09" waitSteps="41" rerouteNo="0" devices="tripinfo_45921_45921_363" vType="passenger_P_14_1" vaporized=""/>
    <tripinfo id="39949_39949_360" depart="21615.00" departLane="-22695987_0" departPos="4.60" departSpeed="0.00" departDelay="0.00" arrival="21909.00" arrivalLane="-158196011#10_0" arrivalPos="147.80" arrivalSpeed="22.17" duration="294.00" routeLength="3927.02" waitSteps="0" rerouteNo="0" devices="tripinfo_39949_39949_360" vType="passenger_P_14_1" vaporized=""/>
    <tripinfo id="35092_35092_353" depart="21600.00" departLane="-25585097_0" departPos="4.60" departSpeed="0.00" departDelay="0.00" arrival="21909.00" arrivalLane="-131643010#0_0" arrivalPos="77.59" arrivalSpeed="13.55" duration="309.00" routeLength="2672.70" waitSteps="96" rerouteNo="0" devices="tripinfo_35092_35092_353" vType="passenger_P_14_1" vaporized=""/>
    <tripinfo id="44504_44504_362" depart="21780.00" departLane="-28005405#4_0" departPos="4.60" departSpeed="0.00" departDelay="0.00" arrival="21911.00" arrivalLane="-7981483#0_0" arrivalPos="56.47" arrivalSpeed="7.70" duration="131.00" routeLength="1371.57" waitSteps="0" rerouteNo="0" devices="tripinfo_44504_44504_362" vType="passenger_P_14_1" vaporized=""/>
    <tripinfo id="50036_50036_368" depart="21722.00" departLane="-24674274#0_0" departPos="4.60" departSpeed="0.00" departDelay="0.00" arrival="21912.00" arrivalLane="27634193#0_0" arrivalPos="472.33" arrivalSpeed="21.34" duration="190.00" routeLength="2702.87" waitSteps="0" rerouteNo="0" devices="tripinfo_50036_50036_368" vType="passenger_P_14_1" vaporized=""/>
    <tripinfo id="41550_41550_361" depart="21637.00" departLane="-142766449#2_0" departPos="4.60" departSpeed="0.00" departDelay="0.00" arrival="21912.00" arrivalLane="-49868104_0" arrivalPos="195.57" arrivalSpeed="12.59" duration="275.00" routeLength="3087.64" waitSteps="10" rerouteNo="0" devices="tripinfo_41550_41550_361" vType="passenger_P_14_1" vaporized=""/>
    <tripinfo id="44093_44093_362" depart="21619.00" departLane="67519125_0" departPos="4.60" departSpeed="0.00" departDelay="0.00" arrival="21917.00" arrivalLane="51898857#0_1" arrivalPos="119.77" arrivalSpeed="21.50" duration="298.00" routeLength="3515.02" waitSteps="16" rerouteNo="0" devices="tripinfo_44093_44093_362" vType="passenger_P_14_1" vaporized=""/>
    <tripinfo id="44413_44413_362" depart="21602.00" departLane="30350823#0_0" departPos="4.60" departSpeed="0.00" departDelay="0.00" arrival="21918.00" arrivalLane="37131473#0_0" arrivalPos="232.62" arrivalSpeed="8.13" duration="316.00" routeLength="4047.99" waitSteps="0" rerouteNo="0" devices="tripinfo_44413_44413_362" vType="passenger_P_14_1" vaporized=""/>
    <tripinfo id="38920_38920_359" depart="21698.00" departLane="-23013366#2_0" departPos="4.60" departSpeed="0.00" departDelay="0.00" arrival="21920.00" arrivalLane="23686956#0_0" arrivalPos="57.04" arrivalSpeed="12.60" duration="222.00" routeLength="2388.69" waitSteps="0" rerouteNo="0" devices="tripinfo_38920_38920_359" vType="passenger_P_14_1" vaporized=""/>
    <tripinfo id="35799_35799_355" depart="21697.00" departLane="186642601#8_0" departPos="4.60" departSpeed="0.00" departDelay="0.00" arrival="21925.00" arrivalLane="4866127#0_0" arrivalPos="169.77" arrivalSpeed="8.09" duration="228.00" routeLength="3053.73" waitSteps="0" rerouteNo="0" devices="tripinfo_35799_35799_355" vType="passenger_P_14_1" vaporized=""/>